V -t * -v 1.0a5 -a 0
A -t * -n 1 -p 0 -o 0x7fffffff -c 30 -a 1
A -t * -h 1 -m 1073741823 -s 0
c -t * -i 0 -n violet
c -t * -i 1 -n green
c -t * -i 2 -n orange
c -t * -i 3 -n red
n -t * -a 4 -s 4 -S UP -v circle -c black -i black
n -t * -a 0 -s 0 -S UP -v circle -c black -i black
n -t * -a 5 -s 5 -S UP -v circle -c black -i black
n -t * -a 1 -s 1 -S UP -v circle -c black -i black
n -t * -a 6 -s 6 -S UP -v circle -c black -i black
n -t * -a 2 -s 2 -S UP -v circle -c black -i black
n -t * -a 7 -s 7 -S UP -v circle -c black -i black
n -t * -a 3 -s 3 -S UP -v circle -c black -i black
l -t * -s 0 -d 1 -S UP -r 5000000 -D 0.002 -c black -o right
l -t * -s 1 -d 2 -S UP -r 1500000 -D 0.01 -c black -o right
l -t * -s 2 -d 5 -S UP -r 5000000 -D 0.002 -c black -o right
l -t * -s 1 -d 6 -S UP -r 5000000 -D 0.002 -c black -o up
l -t * -s 4 -d 1 -S UP -r 5000000 -D 0.002 -c black -o up
l -t * -s 2 -d 3 -S UP -r 5000000 -D 0.002 -c black -o up
l -t * -s 7 -d 2 -S UP -r 5000000 -D 0.002 -c black -o up
+ -t 0.25 -s 4 -d 1 -p tcp -e 40 -c 2 -i 0 -a 2 -x {4.0 7.0 0 ------- null}
- -t 0.25 -s 4 -d 1 -p tcp -e 40 -c 2 -i 0 -a 2 -x {4.0 7.0 0 ------- null}
h -t 0.25 -s 4 -d 1 -p tcp -e 40 -c 2 -i 0 -a 2 -x {4.0 7.0 -1 ------- null}
r -t 0.252064 -s 4 -d 1 -p tcp -e 40 -c 2 -i 0 -a 2 -x {4.0 7.0 0 ------- null}
+ -t 0.252064 -s 1 -d 2 -p tcp -e 40 -c 2 -i 0 -a 2 -x {4.0 7.0 0 ------- null}
- -t 0.252064 -s 1 -d 2 -p tcp -e 40 -c 2 -i 0 -a 2 -x {4.0 7.0 0 ------- null}
h -t 0.252064 -s 1 -d 2 -p tcp -e 40 -c 2 -i 0 -a 2 -x {4.0 7.0 -1 ------- null}
r -t 0.262277333333333 -s 1 -d 2 -p tcp -e 40 -c 2 -i 0 -a 2 -x {4.0 7.0 0 ------- null}
+ -t 0.262277333333333 -s 2 -d 7 -p tcp -e 40 -c 2 -i 0 -a 2 -x {4.0 7.0 0 ------- null}
- -t 0.262277333333333 -s 2 -d 7 -p tcp -e 40 -c 2 -i 0 -a 2 -x {4.0 7.0 0 ------- null}
h -t 0.262277333333333 -s 2 -d 7 -p tcp -e 40 -c 2 -i 0 -a 2 -x {4.0 7.0 -1 ------- null}
r -t 0.264341333333333 -s 2 -d 7 -p tcp -e 40 -c 2 -i 0 -a 2 -x {4.0 7.0 0 ------- null}
+ -t 0.264341333333333 -s 7 -d 2 -p ack -e 40 -c 2 -i 1 -a 2 -x {7.0 4.0 0 ------- null}
- -t 0.264341333333333 -s 7 -d 2 -p ack -e 40 -c 2 -i 1 -a 2 -x {7.0 4.0 0 ------- null}
h -t 0.264341333333333 -s 7 -d 2 -p ack -e 40 -c 2 -i 1 -a 2 -x {7.0 4.0 -1 ------- null}
r -t 0.266405333333333 -s 7 -d 2 -p ack -e 40 -c 2 -i 1 -a 2 -x {7.0 4.0 0 ------- null}
+ -t 0.266405333333333 -s 2 -d 1 -p ack -e 40 -c 2 -i 1 -a 2 -x {7.0 4.0 0 ------- null}
- -t 0.266405333333333 -s 2 -d 1 -p ack -e 40 -c 2 -i 1 -a 2 -x {7.0 4.0 0 ------- null}
h -t 0.266405333333333 -s 2 -d 1 -p ack -e 40 -c 2 -i 1 -a 2 -x {7.0 4.0 -1 ------- null}
r -t 0.276618666666667 -s 2 -d 1 -p ack -e 40 -c 2 -i 1 -a 2 -x {7.0 4.0 0 ------- null}
+ -t 0.276618666666667 -s 1 -d 4 -p ack -e 40 -c 2 -i 1 -a 2 -x {7.0 4.0 0 ------- null}
- -t 0.276618666666667 -s 1 -d 4 -p ack -e 40 -c 2 -i 1 -a 2 -x {7.0 4.0 0 ------- null}
h -t 0.276618666666667 -s 1 -d 4 -p ack -e 40 -c 2 -i 1 -a 2 -x {7.0 4.0 -1 ------- null}
r -t 0.278682666666667 -s 1 -d 4 -p ack -e 40 -c 2 -i 1 -a 2 -x {7.0 4.0 0 ------- null}
+ -t 0.278682666666667 -s 4 -d 1 -p tcp -e 1040 -c 2 -i 2 -a 2 -x {4.0 7.0 1 ------- null}
- -t 0.278682666666667 -s 4 -d 1 -p tcp -e 1040 -c 2 -i 2 -a 2 -x {4.0 7.0 1 ------- null}
h -t 0.278682666666667 -s 4 -d 1 -p tcp -e 1040 -c 2 -i 2 -a 2 -x {4.0 7.0 -1 ------- null}
+ -t 0.278682666666667 -s 4 -d 1 -p tcp -e 1040 -c 2 -i 3 -a 2 -x {4.0 7.0 2 ------- null}
- -t 0.280346666666667 -s 4 -d 1 -p tcp -e 1040 -c 2 -i 3 -a 2 -x {4.0 7.0 2 ------- null}
h -t 0.280346666666667 -s 4 -d 1 -p tcp -e 1040 -c 2 -i 3 -a 2 -x {4.0 7.0 -1 ------- null}
r -t 0.282346666666667 -s 4 -d 1 -p tcp -e 1040 -c 2 -i 2 -a 2 -x {4.0 7.0 1 ------- null}
+ -t 0.282346666666667 -s 1 -d 2 -p tcp -e 1040 -c 2 -i 2 -a 2 -x {4.0 7.0 1 ------- null}
- -t 0.282346666666667 -s 1 -d 2 -p tcp -e 1040 -c 2 -i 2 -a 2 -x {4.0 7.0 1 ------- null}
h -t 0.282346666666667 -s 1 -d 2 -p tcp -e 1040 -c 2 -i 2 -a 2 -x {4.0 7.0 -1 ------- null}
r -t 0.284010666666667 -s 4 -d 1 -p tcp -e 1040 -c 2 -i 3 -a 2 -x {4.0 7.0 2 ------- null}
+ -t 0.284010666666667 -s 1 -d 2 -p tcp -e 1040 -c 2 -i 3 -a 2 -x {4.0 7.0 2 ------- null}
- -t 0.287893333333333 -s 1 -d 2 -p tcp -e 1040 -c 2 -i 3 -a 2 -x {4.0 7.0 2 ------- null}
h -t 0.287893333333333 -s 1 -d 2 -p tcp -e 1040 -c 2 -i 3 -a 2 -x {4.0 7.0 -1 ------- null}
r -t 0.297893333333333 -s 1 -d 2 -p tcp -e 1040 -c 2 -i 2 -a 2 -x {4.0 7.0 1 ------- null}
+ -t 0.297893333333333 -s 2 -d 7 -p tcp -e 1040 -c 2 -i 2 -a 2 -x {4.0 7.0 1 ------- null}
- -t 0.297893333333333 -s 2 -d 7 -p tcp -e 1040 -c 2 -i 2 -a 2 -x {4.0 7.0 1 ------- null}
h -t 0.297893333333333 -s 2 -d 7 -p tcp -e 1040 -c 2 -i 2 -a 2 -x {4.0 7.0 -1 ------- null}
r -t 0.301557333333333 -s 2 -d 7 -p tcp -e 1040 -c 2 -i 2 -a 2 -x {4.0 7.0 1 ------- null}
+ -t 0.301557333333333 -s 7 -d 2 -p ack -e 40 -c 2 -i 4 -a 2 -x {7.0 4.0 1 ------- null}
- -t 0.301557333333333 -s 7 -d 2 -p ack -e 40 -c 2 -i 4 -a 2 -x {7.0 4.0 1 ------- null}
h -t 0.301557333333333 -s 7 -d 2 -p ack -e 40 -c 2 -i 4 -a 2 -x {7.0 4.0 -1 ------- null}
r -t 0.30344 -s 1 -d 2 -p tcp -e 1040 -c 2 -i 3 -a 2 -x {4.0 7.0 2 ------- null}
+ -t 0.30344 -s 2 -d 7 -p tcp -e 1040 -c 2 -i 3 -a 2 -x {4.0 7.0 2 ------- null}
- -t 0.30344 -s 2 -d 7 -p tcp -e 1040 -c 2 -i 3 -a 2 -x {4.0 7.0 2 ------- null}
h -t 0.30344 -s 2 -d 7 -p tcp -e 1040 -c 2 -i 3 -a 2 -x {4.0 7.0 -1 ------- null}
r -t 0.303621333333333 -s 7 -d 2 -p ack -e 40 -c 2 -i 4 -a 2 -x {7.0 4.0 1 ------- null}
+ -t 0.303621333333333 -s 2 -d 1 -p ack -e 40 -c 2 -i 4 -a 2 -x {7.0 4.0 1 ------- null}
- -t 0.303621333333333 -s 2 -d 1 -p ack -e 40 -c 2 -i 4 -a 2 -x {7.0 4.0 1 ------- null}
h -t 0.303621333333333 -s 2 -d 1 -p ack -e 40 -c 2 -i 4 -a 2 -x {7.0 4.0 -1 ------- null}
r -t 0.307104 -s 2 -d 7 -p tcp -e 1040 -c 2 -i 3 -a 2 -x {4.0 7.0 2 ------- null}
+ -t 0.307104 -s 7 -d 2 -p ack -e 40 -c 2 -i 5 -a 2 -x {7.0 4.0 2 ------- null}
- -t 0.307104 -s 7 -d 2 -p ack -e 40 -c 2 -i 5 -a 2 -x {7.0 4.0 2 ------- null}
h -t 0.307104 -s 7 -d 2 -p ack -e 40 -c 2 -i 5 -a 2 -x {7.0 4.0 -1 ------- null}
r -t 0.309168 -s 7 -d 2 -p ack -e 40 -c 2 -i 5 -a 2 -x {7.0 4.0 2 ------- null}
+ -t 0.309168 -s 2 -d 1 -p ack -e 40 -c 2 -i 5 -a 2 -x {7.0 4.0 2 ------- null}
- -t 0.309168 -s 2 -d 1 -p ack -e 40 -c 2 -i 5 -a 2 -x {7.0 4.0 2 ------- null}
h -t 0.309168 -s 2 -d 1 -p ack -e 40 -c 2 -i 5 -a 2 -x {7.0 4.0 -1 ------- null}
r -t 0.313834666666667 -s 2 -d 1 -p ack -e 40 -c 2 -i 4 -a 2 -x {7.0 4.0 1 ------- null}
+ -t 0.313834666666667 -s 1 -d 4 -p ack -e 40 -c 2 -i 4 -a 2 -x {7.0 4.0 1 ------- null}
- -t 0.313834666666667 -s 1 -d 4 -p ack -e 40 -c 2 -i 4 -a 2 -x {7.0 4.0 1 ------- null}
h -t 0.313834666666667 -s 1 -d 4 -p ack -e 40 -c 2 -i 4 -a 2 -x {7.0 4.0 -1 ------- null}
r -t 0.315898666666667 -s 1 -d 4 -p ack -e 40 -c 2 -i 4 -a 2 -x {7.0 4.0 1 ------- null}
+ -t 0.315898666666667 -s 4 -d 1 -p tcp -e 1040 -c 2 -i 6 -a 2 -x {4.0 7.0 3 ------- null}
- -t 0.315898666666667 -s 4 -d 1 -p tcp -e 1040 -c 2 -i 6 -a 2 -x {4.0 7.0 3 ------- null}
h -t 0.315898666666667 -s 4 -d 1 -p tcp -e 1040 -c 2 -i 6 -a 2 -x {4.0 7.0 -1 ------- null}
+ -t 0.315898666666667 -s 4 -d 1 -p tcp -e 1040 -c 2 -i 7 -a 2 -x {4.0 7.0 4 ------- null}
- -t 0.317562666666667 -s 4 -d 1 -p tcp -e 1040 -c 2 -i 7 -a 2 -x {4.0 7.0 4 ------- null}
h -t 0.317562666666667 -s 4 -d 1 -p tcp -e 1040 -c 2 -i 7 -a 2 -x {4.0 7.0 -1 ------- null}
r -t 0.319381333333333 -s 2 -d 1 -p ack -e 40 -c 2 -i 5 -a 2 -x {7.0 4.0 2 ------- null}
+ -t 0.319381333333333 -s 1 -d 4 -p ack -e 40 -c 2 -i 5 -a 2 -x {7.0 4.0 2 ------- null}
- -t 0.319381333333333 -s 1 -d 4 -p ack -e 40 -c 2 -i 5 -a 2 -x {7.0 4.0 2 ------- null}
h -t 0.319381333333333 -s 1 -d 4 -p ack -e 40 -c 2 -i 5 -a 2 -x {7.0 4.0 -1 ------- null}
r -t 0.319562666666667 -s 4 -d 1 -p tcp -e 1040 -c 2 -i 6 -a 2 -x {4.0 7.0 3 ------- null}
+ -t 0.319562666666667 -s 1 -d 2 -p tcp -e 1040 -c 2 -i 6 -a 2 -x {4.0 7.0 3 ------- null}
- -t 0.319562666666667 -s 1 -d 2 -p tcp -e 1040 -c 2 -i 6 -a 2 -x {4.0 7.0 3 ------- null}
h -t 0.319562666666667 -s 1 -d 2 -p tcp -e 1040 -c 2 -i 6 -a 2 -x {4.0 7.0 -1 ------- null}
r -t 0.321226666666667 -s 4 -d 1 -p tcp -e 1040 -c 2 -i 7 -a 2 -x {4.0 7.0 4 ------- null}
+ -t 0.321226666666667 -s 1 -d 2 -p tcp -e 1040 -c 2 -i 7 -a 2 -x {4.0 7.0 4 ------- null}
r -t 0.321445333333333 -s 1 -d 4 -p ack -e 40 -c 2 -i 5 -a 2 -x {7.0 4.0 2 ------- null}
+ -t 0.321445333333333 -s 4 -d 1 -p tcp -e 1040 -c 2 -i 8 -a 2 -x {4.0 7.0 5 ------- null}
- -t 0.321445333333333 -s 4 -d 1 -p tcp -e 1040 -c 2 -i 8 -a 2 -x {4.0 7.0 5 ------- null}
h -t 0.321445333333333 -s 4 -d 1 -p tcp -e 1040 -c 2 -i 8 -a 2 -x {4.0 7.0 -1 ------- null}
+ -t 0.321445333333333 -s 4 -d 1 -p tcp -e 1040 -c 2 -i 9 -a 2 -x {4.0 7.0 6 ------- null}
- -t 0.323109333333333 -s 4 -d 1 -p tcp -e 1040 -c 2 -i 9 -a 2 -x {4.0 7.0 6 ------- null}
h -t 0.323109333333333 -s 4 -d 1 -p tcp -e 1040 -c 2 -i 9 -a 2 -x {4.0 7.0 -1 ------- null}
- -t 0.325109333333333 -s 1 -d 2 -p tcp -e 1040 -c 2 -i 7 -a 2 -x {4.0 7.0 4 ------- null}
h -t 0.325109333333333 -s 1 -d 2 -p tcp -e 1040 -c 2 -i 7 -a 2 -x {4.0 7.0 -1 ------- null}
r -t 0.325109333333333 -s 4 -d 1 -p tcp -e 1040 -c 2 -i 8 -a 2 -x {4.0 7.0 5 ------- null}
+ -t 0.325109333333333 -s 1 -d 2 -p tcp -e 1040 -c 2 -i 8 -a 2 -x {4.0 7.0 5 ------- null}
r -t 0.326773333333333 -s 4 -d 1 -p tcp -e 1040 -c 2 -i 9 -a 2 -x {4.0 7.0 6 ------- null}
+ -t 0.326773333333333 -s 1 -d 2 -p tcp -e 1040 -c 2 -i 9 -a 2 -x {4.0 7.0 6 ------- null}
- -t 0.330656 -s 1 -d 2 -p tcp -e 1040 -c 2 -i 8 -a 2 -x {4.0 7.0 5 ------- null}
h -t 0.330656 -s 1 -d 2 -p tcp -e 1040 -c 2 -i 8 -a 2 -x {4.0 7.0 -1 ------- null}
r -t 0.335109333333333 -s 1 -d 2 -p tcp -e 1040 -c 2 -i 6 -a 2 -x {4.0 7.0 3 ------- null}
+ -t 0.335109333333333 -s 2 -d 7 -p tcp -e 1040 -c 2 -i 6 -a 2 -x {4.0 7.0 3 ------- null}
- -t 0.335109333333333 -s 2 -d 7 -p tcp -e 1040 -c 2 -i 6 -a 2 -x {4.0 7.0 3 ------- null}
h -t 0.335109333333333 -s 2 -d 7 -p tcp -e 1040 -c 2 -i 6 -a 2 -x {4.0 7.0 -1 ------- null}
- -t 0.336202666666667 -s 1 -d 2 -p tcp -e 1040 -c 2 -i 9 -a 2 -x {4.0 7.0 6 ------- null}
h -t 0.336202666666667 -s 1 -d 2 -p tcp -e 1040 -c 2 -i 9 -a 2 -x {4.0 7.0 -1 ------- null}
r -t 0.338773333333333 -s 2 -d 7 -p tcp -e 1040 -c 2 -i 6 -a 2 -x {4.0 7.0 3 ------- null}
+ -t 0.338773333333333 -s 7 -d 2 -p ack -e 40 -c 2 -i 10 -a 2 -x {7.0 4.0 3 ------- null}
- -t 0.338773333333333 -s 7 -d 2 -p ack -e 40 -c 2 -i 10 -a 2 -x {7.0 4.0 3 ------- null}
h -t 0.338773333333333 -s 7 -d 2 -p ack -e 40 -c 2 -i 10 -a 2 -x {7.0 4.0 -1 ------- null}
r -t 0.340656 -s 1 -d 2 -p tcp -e 1040 -c 2 -i 7 -a 2 -x {4.0 7.0 4 ------- null}
+ -t 0.340656 -s 2 -d 7 -p tcp -e 1040 -c 2 -i 7 -a 2 -x {4.0 7.0 4 ------- null}
- -t 0.340656 -s 2 -d 7 -p tcp -e 1040 -c 2 -i 7 -a 2 -x {4.0 7.0 4 ------- null}
h -t 0.340656 -s 2 -d 7 -p tcp -e 1040 -c 2 -i 7 -a 2 -x {4.0 7.0 -1 ------- null}
r -t 0.340837333333333 -s 7 -d 2 -p ack -e 40 -c 2 -i 10 -a 2 -x {7.0 4.0 3 ------- null}
+ -t 0.340837333333333 -s 2 -d 1 -p ack -e 40 -c 2 -i 10 -a 2 -x {7.0 4.0 3 ------- null}
- -t 0.340837333333333 -s 2 -d 1 -p ack -e 40 -c 2 -i 10 -a 2 -x {7.0 4.0 3 ------- null}
h -t 0.340837333333333 -s 2 -d 1 -p ack -e 40 -c 2 -i 10 -a 2 -x {7.0 4.0 -1 ------- null}
r -t 0.34432 -s 2 -d 7 -p tcp -e 1040 -c 2 -i 7 -a 2 -x {4.0 7.0 4 ------- null}
+ -t 0.34432 -s 7 -d 2 -p ack -e 40 -c 2 -i 11 -a 2 -x {7.0 4.0 4 ------- null}
- -t 0.34432 -s 7 -d 2 -p ack -e 40 -c 2 -i 11 -a 2 -x {7.0 4.0 4 ------- null}
h -t 0.34432 -s 7 -d 2 -p ack -e 40 -c 2 -i 11 -a 2 -x {7.0 4.0 -1 ------- null}
r -t 0.346202666666667 -s 1 -d 2 -p tcp -e 1040 -c 2 -i 8 -a 2 -x {4.0 7.0 5 ------- null}
+ -t 0.346202666666667 -s 2 -d 7 -p tcp -e 1040 -c 2 -i 8 -a 2 -x {4.0 7.0 5 ------- null}
- -t 0.346202666666667 -s 2 -d 7 -p tcp -e 1040 -c 2 -i 8 -a 2 -x {4.0 7.0 5 ------- null}
h -t 0.346202666666667 -s 2 -d 7 -p tcp -e 1040 -c 2 -i 8 -a 2 -x {4.0 7.0 -1 ------- null}
r -t 0.346384 -s 7 -d 2 -p ack -e 40 -c 2 -i 11 -a 2 -x {7.0 4.0 4 ------- null}
+ -t 0.346384 -s 2 -d 1 -p ack -e 40 -c 2 -i 11 -a 2 -x {7.0 4.0 4 ------- null}
- -t 0.346384 -s 2 -d 1 -p ack -e 40 -c 2 -i 11 -a 2 -x {7.0 4.0 4 ------- null}
h -t 0.346384 -s 2 -d 1 -p ack -e 40 -c 2 -i 11 -a 2 -x {7.0 4.0 -1 ------- null}
r -t 0.349866666666667 -s 2 -d 7 -p tcp -e 1040 -c 2 -i 8 -a 2 -x {4.0 7.0 5 ------- null}
+ -t 0.349866666666667 -s 7 -d 2 -p ack -e 40 -c 2 -i 12 -a 2 -x {7.0 4.0 5 ------- null}
- -t 0.349866666666667 -s 7 -d 2 -p ack -e 40 -c 2 -i 12 -a 2 -x {7.0 4.0 5 ------- null}
h -t 0.349866666666667 -s 7 -d 2 -p ack -e 40 -c 2 -i 12 -a 2 -x {7.0 4.0 -1 ------- null}
r -t 0.351050666666667 -s 2 -d 1 -p ack -e 40 -c 2 -i 10 -a 2 -x {7.0 4.0 3 ------- null}
+ -t 0.351050666666667 -s 1 -d 4 -p ack -e 40 -c 2 -i 10 -a 2 -x {7.0 4.0 3 ------- null}
- -t 0.351050666666667 -s 1 -d 4 -p ack -e 40 -c 2 -i 10 -a 2 -x {7.0 4.0 3 ------- null}
h -t 0.351050666666667 -s 1 -d 4 -p ack -e 40 -c 2 -i 10 -a 2 -x {7.0 4.0 -1 ------- null}
r -t 0.351749333333333 -s 1 -d 2 -p tcp -e 1040 -c 2 -i 9 -a 2 -x {4.0 7.0 6 ------- null}
+ -t 0.351749333333333 -s 2 -d 7 -p tcp -e 1040 -c 2 -i 9 -a 2 -x {4.0 7.0 6 ------- null}
- -t 0.351749333333333 -s 2 -d 7 -p tcp -e 1040 -c 2 -i 9 -a 2 -x {4.0 7.0 6 ------- null}
h -t 0.351749333333333 -s 2 -d 7 -p tcp -e 1040 -c 2 -i 9 -a 2 -x {4.0 7.0 -1 ------- null}
r -t 0.351930666666667 -s 7 -d 2 -p ack -e 40 -c 2 -i 12 -a 2 -x {7.0 4.0 5 ------- null}
+ -t 0.351930666666667 -s 2 -d 1 -p ack -e 40 -c 2 -i 12 -a 2 -x {7.0 4.0 5 ------- null}
- -t 0.351930666666667 -s 2 -d 1 -p ack -e 40 -c 2 -i 12 -a 2 -x {7.0 4.0 5 ------- null}
h -t 0.351930666666667 -s 2 -d 1 -p ack -e 40 -c 2 -i 12 -a 2 -x {7.0 4.0 -1 ------- null}
r -t 0.353114666666667 -s 1 -d 4 -p ack -e 40 -c 2 -i 10 -a 2 -x {7.0 4.0 3 ------- null}
+ -t 0.353114666666667 -s 4 -d 1 -p tcp -e 1040 -c 2 -i 13 -a 2 -x {4.0 7.0 7 ------- null}
- -t 0.353114666666667 -s 4 -d 1 -p tcp -e 1040 -c 2 -i 13 -a 2 -x {4.0 7.0 7 ------- null}
h -t 0.353114666666667 -s 4 -d 1 -p tcp -e 1040 -c 2 -i 13 -a 2 -x {4.0 7.0 -1 ------- null}
+ -t 0.353114666666667 -s 4 -d 1 -p tcp -e 1040 -c 2 -i 14 -a 2 -x {4.0 7.0 8 ------- null}
- -t 0.354778666666667 -s 4 -d 1 -p tcp -e 1040 -c 2 -i 14 -a 2 -x {4.0 7.0 8 ------- null}
h -t 0.354778666666667 -s 4 -d 1 -p tcp -e 1040 -c 2 -i 14 -a 2 -x {4.0 7.0 -1 ------- null}
r -t 0.355413333333333 -s 2 -d 7 -p tcp -e 1040 -c 2 -i 9 -a 2 -x {4.0 7.0 6 ------- null}
+ -t 0.355413333333333 -s 7 -d 2 -p ack -e 40 -c 2 -i 15 -a 2 -x {7.0 4.0 6 ------- null}
- -t 0.355413333333333 -s 7 -d 2 -p ack -e 40 -c 2 -i 15 -a 2 -x {7.0 4.0 6 ------- null}
h -t 0.355413333333333 -s 7 -d 2 -p ack -e 40 -c 2 -i 15 -a 2 -x {7.0 4.0 -1 ------- null}
r -t 0.356597333333333 -s 2 -d 1 -p ack -e 40 -c 2 -i 11 -a 2 -x {7.0 4.0 4 ------- null}
+ -t 0.356597333333333 -s 1 -d 4 -p ack -e 40 -c 2 -i 11 -a 2 -x {7.0 4.0 4 ------- null}
- -t 0.356597333333333 -s 1 -d 4 -p ack -e 40 -c 2 -i 11 -a 2 -x {7.0 4.0 4 ------- null}
h -t 0.356597333333333 -s 1 -d 4 -p ack -e 40 -c 2 -i 11 -a 2 -x {7.0 4.0 -1 ------- null}
r -t 0.356778666666667 -s 4 -d 1 -p tcp -e 1040 -c 2 -i 13 -a 2 -x {4.0 7.0 7 ------- null}
+ -t 0.356778666666667 -s 1 -d 2 -p tcp -e 1040 -c 2 -i 13 -a 2 -x {4.0 7.0 7 ------- null}
- -t 0.356778666666667 -s 1 -d 2 -p tcp -e 1040 -c 2 -i 13 -a 2 -x {4.0 7.0 7 ------- null}
h -t 0.356778666666667 -s 1 -d 2 -p tcp -e 1040 -c 2 -i 13 -a 2 -x {4.0 7.0 -1 ------- null}
r -t 0.357477333333333 -s 7 -d 2 -p ack -e 40 -c 2 -i 15 -a 2 -x {7.0 4.0 6 ------- null}
+ -t 0.357477333333333 -s 2 -d 1 -p ack -e 40 -c 2 -i 15 -a 2 -x {7.0 4.0 6 ------- null}
- -t 0.357477333333333 -s 2 -d 1 -p ack -e 40 -c 2 -i 15 -a 2 -x {7.0 4.0 6 ------- null}
h -t 0.357477333333333 -s 2 -d 1 -p ack -e 40 -c 2 -i 15 -a 2 -x {7.0 4.0 -1 ------- null}
r -t 0.358442666666667 -s 4 -d 1 -p tcp -e 1040 -c 2 -i 14 -a 2 -x {4.0 7.0 8 ------- null}
+ -t 0.358442666666667 -s 1 -d 2 -p tcp -e 1040 -c 2 -i 14 -a 2 -x {4.0 7.0 8 ------- null}
r -t 0.358661333333333 -s 1 -d 4 -p ack -e 40 -c 2 -i 11 -a 2 -x {7.0 4.0 4 ------- null}
+ -t 0.358661333333333 -s 4 -d 1 -p tcp -e 1040 -c 2 -i 16 -a 2 -x {4.0 7.0 9 ------- null}
- -t 0.358661333333333 -s 4 -d 1 -p tcp -e 1040 -c 2 -i 16 -a 2 -x {4.0 7.0 9 ------- null}
h -t 0.358661333333333 -s 4 -d 1 -p tcp -e 1040 -c 2 -i 16 -a 2 -x {4.0 7.0 -1 ------- null}
+ -t 0.358661333333333 -s 4 -d 1 -p tcp -e 1040 -c 2 -i 17 -a 2 -x {4.0 7.0 10 ------- null}
- -t 0.360325333333333 -s 4 -d 1 -p tcp -e 1040 -c 2 -i 17 -a 2 -x {4.0 7.0 10 ------- null}
h -t 0.360325333333333 -s 4 -d 1 -p tcp -e 1040 -c 2 -i 17 -a 2 -x {4.0 7.0 -1 ------- null}
r -t 0.362144 -s 2 -d 1 -p ack -e 40 -c 2 -i 12 -a 2 -x {7.0 4.0 5 ------- null}
+ -t 0.362144 -s 1 -d 4 -p ack -e 40 -c 2 -i 12 -a 2 -x {7.0 4.0 5 ------- null}
- -t 0.362144 -s 1 -d 4 -p ack -e 40 -c 2 -i 12 -a 2 -x {7.0 4.0 5 ------- null}
h -t 0.362144 -s 1 -d 4 -p ack -e 40 -c 2 -i 12 -a 2 -x {7.0 4.0 -1 ------- null}
- -t 0.362325333333333 -s 1 -d 2 -p tcp -e 1040 -c 2 -i 14 -a 2 -x {4.0 7.0 8 ------- null}
h -t 0.362325333333333 -s 1 -d 2 -p tcp -e 1040 -c 2 -i 14 -a 2 -x {4.0 7.0 -1 ------- null}
r -t 0.362325333333333 -s 4 -d 1 -p tcp -e 1040 -c 2 -i 16 -a 2 -x {4.0 7.0 9 ------- null}
+ -t 0.362325333333333 -s 1 -d 2 -p tcp -e 1040 -c 2 -i 16 -a 2 -x {4.0 7.0 9 ------- null}
r -t 0.363989333333333 -s 4 -d 1 -p tcp -e 1040 -c 2 -i 17 -a 2 -x {4.0 7.0 10 ------- null}
+ -t 0.363989333333333 -s 1 -d 2 -p tcp -e 1040 -c 2 -i 17 -a 2 -x {4.0 7.0 10 ------- null}
r -t 0.364208 -s 1 -d 4 -p ack -e 40 -c 2 -i 12 -a 2 -x {7.0 4.0 5 ------- null}
+ -t 0.364208 -s 4 -d 1 -p tcp -e 1040 -c 2 -i 18 -a 2 -x {4.0 7.0 11 ------- null}
- -t 0.364208 -s 4 -d 1 -p tcp -e 1040 -c 2 -i 18 -a 2 -x {4.0 7.0 11 ------- null}
h -t 0.364208 -s 4 -d 1 -p tcp -e 1040 -c 2 -i 18 -a 2 -x {4.0 7.0 -1 ------- null}
+ -t 0.364208 -s 4 -d 1 -p tcp -e 1040 -c 2 -i 19 -a 2 -x {4.0 7.0 12 ------- null}
- -t 0.365872 -s 4 -d 1 -p tcp -e 1040 -c 2 -i 19 -a 2 -x {4.0 7.0 12 ------- null}
h -t 0.365872 -s 4 -d 1 -p tcp -e 1040 -c 2 -i 19 -a 2 -x {4.0 7.0 -1 ------- null}
r -t 0.367690666666667 -s 2 -d 1 -p ack -e 40 -c 2 -i 15 -a 2 -x {7.0 4.0 6 ------- null}
+ -t 0.367690666666667 -s 1 -d 4 -p ack -e 40 -c 2 -i 15 -a 2 -x {7.0 4.0 6 ------- null}
- -t 0.367690666666667 -s 1 -d 4 -p ack -e 40 -c 2 -i 15 -a 2 -x {7.0 4.0 6 ------- null}
h -t 0.367690666666667 -s 1 -d 4 -p ack -e 40 -c 2 -i 15 -a 2 -x {7.0 4.0 -1 ------- null}
- -t 0.367872 -s 1 -d 2 -p tcp -e 1040 -c 2 -i 16 -a 2 -x {4.0 7.0 9 ------- null}
h -t 0.367872 -s 1 -d 2 -p tcp -e 1040 -c 2 -i 16 -a 2 -x {4.0 7.0 -1 ------- null}
r -t 0.367872 -s 4 -d 1 -p tcp -e 1040 -c 2 -i 18 -a 2 -x {4.0 7.0 11 ------- null}
+ -t 0.367872 -s 1 -d 2 -p tcp -e 1040 -c 2 -i 18 -a 2 -x {4.0 7.0 11 ------- null}
r -t 0.369536 -s 4 -d 1 -p tcp -e 1040 -c 2 -i 19 -a 2 -x {4.0 7.0 12 ------- null}
+ -t 0.369536 -s 1 -d 2 -p tcp -e 1040 -c 2 -i 19 -a 2 -x {4.0 7.0 12 ------- null}
r -t 0.369754666666667 -s 1 -d 4 -p ack -e 40 -c 2 -i 15 -a 2 -x {7.0 4.0 6 ------- null}
+ -t 0.369754666666667 -s 4 -d 1 -p tcp -e 1040 -c 2 -i 20 -a 2 -x {4.0 7.0 13 ------- null}
- -t 0.369754666666667 -s 4 -d 1 -p tcp -e 1040 -c 2 -i 20 -a 2 -x {4.0 7.0 13 ------- null}
h -t 0.369754666666667 -s 4 -d 1 -p tcp -e 1040 -c 2 -i 20 -a 2 -x {4.0 7.0 -1 ------- null}
+ -t 0.369754666666667 -s 4 -d 1 -p tcp -e 1040 -c 2 -i 21 -a 2 -x {4.0 7.0 14 ------- null}
- -t 0.371418666666667 -s 4 -d 1 -p tcp -e 1040 -c 2 -i 21 -a 2 -x {4.0 7.0 14 ------- null}
h -t 0.371418666666667 -s 4 -d 1 -p tcp -e 1040 -c 2 -i 21 -a 2 -x {4.0 7.0 -1 ------- null}
r -t 0.372325333333333 -s 1 -d 2 -p tcp -e 1040 -c 2 -i 13 -a 2 -x {4.0 7.0 7 ------- null}
+ -t 0.372325333333333 -s 2 -d 7 -p tcp -e 1040 -c 2 -i 13 -a 2 -x {4.0 7.0 7 ------- null}
- -t 0.372325333333333 -s 2 -d 7 -p tcp -e 1040 -c 2 -i 13 -a 2 -x {4.0 7.0 7 ------- null}
h -t 0.372325333333333 -s 2 -d 7 -p tcp -e 1040 -c 2 -i 13 -a 2 -x {4.0 7.0 -1 ------- null}
- -t 0.373418666666667 -s 1 -d 2 -p tcp -e 1040 -c 2 -i 17 -a 2 -x {4.0 7.0 10 ------- null}
h -t 0.373418666666667 -s 1 -d 2 -p tcp -e 1040 -c 2 -i 17 -a 2 -x {4.0 7.0 -1 ------- null}
r -t 0.373418666666667 -s 4 -d 1 -p tcp -e 1040 -c 2 -i 20 -a 2 -x {4.0 7.0 13 ------- null}
+ -t 0.373418666666667 -s 1 -d 2 -p tcp -e 1040 -c 2 -i 20 -a 2 -x {4.0 7.0 13 ------- null}
r -t 0.375082666666667 -s 4 -d 1 -p tcp -e 1040 -c 2 -i 21 -a 2 -x {4.0 7.0 14 ------- null}
+ -t 0.375082666666667 -s 1 -d 2 -p tcp -e 1040 -c 2 -i 21 -a 2 -x {4.0 7.0 14 ------- null}
r -t 0.375989333333333 -s 2 -d 7 -p tcp -e 1040 -c 2 -i 13 -a 2 -x {4.0 7.0 7 ------- null}
+ -t 0.375989333333333 -s 7 -d 2 -p ack -e 40 -c 2 -i 22 -a 2 -x {7.0 4.0 7 ------- null}
- -t 0.375989333333333 -s 7 -d 2 -p ack -e 40 -c 2 -i 22 -a 2 -x {7.0 4.0 7 ------- null}
h -t 0.375989333333333 -s 7 -d 2 -p ack -e 40 -c 2 -i 22 -a 2 -x {7.0 4.0 -1 ------- null}
r -t 0.377872 -s 1 -d 2 -p tcp -e 1040 -c 2 -i 14 -a 2 -x {4.0 7.0 8 ------- null}
+ -t 0.377872 -s 2 -d 7 -p tcp -e 1040 -c 2 -i 14 -a 2 -x {4.0 7.0 8 ------- null}
- -t 0.377872 -s 2 -d 7 -p tcp -e 1040 -c 2 -i 14 -a 2 -x {4.0 7.0 8 ------- null}
h -t 0.377872 -s 2 -d 7 -p tcp -e 1040 -c 2 -i 14 -a 2 -x {4.0 7.0 -1 ------- null}
r -t 0.378053333333333 -s 7 -d 2 -p ack -e 40 -c 2 -i 22 -a 2 -x {7.0 4.0 7 ------- null}
+ -t 0.378053333333333 -s 2 -d 1 -p ack -e 40 -c 2 -i 22 -a 2 -x {7.0 4.0 7 ------- null}
- -t 0.378053333333333 -s 2 -d 1 -p ack -e 40 -c 2 -i 22 -a 2 -x {7.0 4.0 7 ------- null}
h -t 0.378053333333333 -s 2 -d 1 -p ack -e 40 -c 2 -i 22 -a 2 -x {7.0 4.0 -1 ------- null}
- -t 0.378965333333333 -s 1 -d 2 -p tcp -e 1040 -c 2 -i 18 -a 2 -x {4.0 7.0 11 ------- null}
h -t 0.378965333333333 -s 1 -d 2 -p tcp -e 1040 -c 2 -i 18 -a 2 -x {4.0 7.0 -1 ------- null}
r -t 0.381536 -s 2 -d 7 -p tcp -e 1040 -c 2 -i 14 -a 2 -x {4.0 7.0 8 ------- null}
+ -t 0.381536 -s 7 -d 2 -p ack -e 40 -c 2 -i 23 -a 2 -x {7.0 4.0 8 ------- null}
- -t 0.381536 -s 7 -d 2 -p ack -e 40 -c 2 -i 23 -a 2 -x {7.0 4.0 8 ------- null}
h -t 0.381536 -s 7 -d 2 -p ack -e 40 -c 2 -i 23 -a 2 -x {7.0 4.0 -1 ------- null}
r -t 0.383418666666667 -s 1 -d 2 -p tcp -e 1040 -c 2 -i 16 -a 2 -x {4.0 7.0 9 ------- null}
+ -t 0.383418666666667 -s 2 -d 7 -p tcp -e 1040 -c 2 -i 16 -a 2 -x {4.0 7.0 9 ------- null}
- -t 0.383418666666667 -s 2 -d 7 -p tcp -e 1040 -c 2 -i 16 -a 2 -x {4.0 7.0 9 ------- null}
h -t 0.383418666666667 -s 2 -d 7 -p tcp -e 1040 -c 2 -i 16 -a 2 -x {4.0 7.0 -1 ------- null}
r -t 0.3836 -s 7 -d 2 -p ack -e 40 -c 2 -i 23 -a 2 -x {7.0 4.0 8 ------- null}
+ -t 0.3836 -s 2 -d 1 -p ack -e 40 -c 2 -i 23 -a 2 -x {7.0 4.0 8 ------- null}
- -t 0.3836 -s 2 -d 1 -p ack -e 40 -c 2 -i 23 -a 2 -x {7.0 4.0 8 ------- null}
h -t 0.3836 -s 2 -d 1 -p ack -e 40 -c 2 -i 23 -a 2 -x {7.0 4.0 -1 ------- null}
- -t 0.384512 -s 1 -d 2 -p tcp -e 1040 -c 2 -i 19 -a 2 -x {4.0 7.0 12 ------- null}
h -t 0.384512 -s 1 -d 2 -p tcp -e 1040 -c 2 -i 19 -a 2 -x {4.0 7.0 -1 ------- null}
r -t 0.387082666666667 -s 2 -d 7 -p tcp -e 1040 -c 2 -i 16 -a 2 -x {4.0 7.0 9 ------- null}
+ -t 0.387082666666667 -s 7 -d 2 -p ack -e 40 -c 2 -i 24 -a 2 -x {7.0 4.0 9 ------- null}
- -t 0.387082666666667 -s 7 -d 2 -p ack -e 40 -c 2 -i 24 -a 2 -x {7.0 4.0 9 ------- null}
h -t 0.387082666666667 -s 7 -d 2 -p ack -e 40 -c 2 -i 24 -a 2 -x {7.0 4.0 -1 ------- null}
r -t 0.388266666666667 -s 2 -d 1 -p ack -e 40 -c 2 -i 22 -a 2 -x {7.0 4.0 7 ------- null}
+ -t 0.388266666666667 -s 1 -d 4 -p ack -e 40 -c 2 -i 22 -a 2 -x {7.0 4.0 7 ------- null}
- -t 0.388266666666667 -s 1 -d 4 -p ack -e 40 -c 2 -i 22 -a 2 -x {7.0 4.0 7 ------- null}
h -t 0.388266666666667 -s 1 -d 4 -p ack -e 40 -c 2 -i 22 -a 2 -x {7.0 4.0 -1 ------- null}
r -t 0.388965333333333 -s 1 -d 2 -p tcp -e 1040 -c 2 -i 17 -a 2 -x {4.0 7.0 10 ------- null}
+ -t 0.388965333333333 -s 2 -d 7 -p tcp -e 1040 -c 2 -i 17 -a 2 -x {4.0 7.0 10 ------- null}
- -t 0.388965333333333 -s 2 -d 7 -p tcp -e 1040 -c 2 -i 17 -a 2 -x {4.0 7.0 10 ------- null}
h -t 0.388965333333333 -s 2 -d 7 -p tcp -e 1040 -c 2 -i 17 -a 2 -x {4.0 7.0 -1 ------- null}
r -t 0.389146666666667 -s 7 -d 2 -p ack -e 40 -c 2 -i 24 -a 2 -x {7.0 4.0 9 ------- null}
+ -t 0.389146666666667 -s 2 -d 1 -p ack -e 40 -c 2 -i 24 -a 2 -x {7.0 4.0 9 ------- null}
- -t 0.389146666666667 -s 2 -d 1 -p ack -e 40 -c 2 -i 24 -a 2 -x {7.0 4.0 9 ------- null}
h -t 0.389146666666667 -s 2 -d 1 -p ack -e 40 -c 2 -i 24 -a 2 -x {7.0 4.0 -1 ------- null}
- -t 0.390058666666667 -s 1 -d 2 -p tcp -e 1040 -c 2 -i 20 -a 2 -x {4.0 7.0 13 ------- null}
h -t 0.390058666666667 -s 1 -d 2 -p tcp -e 1040 -c 2 -i 20 -a 2 -x {4.0 7.0 -1 ------- null}
r -t 0.390330666666667 -s 1 -d 4 -p ack -e 40 -c 2 -i 22 -a 2 -x {7.0 4.0 7 ------- null}
+ -t 0.390330666666667 -s 4 -d 1 -p tcp -e 1040 -c 2 -i 25 -a 2 -x {4.0 7.0 15 ------- null}
- -t 0.390330666666667 -s 4 -d 1 -p tcp -e 1040 -c 2 -i 25 -a 2 -x {4.0 7.0 15 ------- null}
h -t 0.390330666666667 -s 4 -d 1 -p tcp -e 1040 -c 2 -i 25 -a 2 -x {4.0 7.0 -1 ------- null}
+ -t 0.390330666666667 -s 4 -d 1 -p tcp -e 1040 -c 2 -i 26 -a 2 -x {4.0 7.0 16 ------- null}
- -t 0.391994666666667 -s 4 -d 1 -p tcp -e 1040 -c 2 -i 26 -a 2 -x {4.0 7.0 16 ------- null}
h -t 0.391994666666667 -s 4 -d 1 -p tcp -e 1040 -c 2 -i 26 -a 2 -x {4.0 7.0 -1 ------- null}
r -t 0.392629333333333 -s 2 -d 7 -p tcp -e 1040 -c 2 -i 17 -a 2 -x {4.0 7.0 10 ------- null}
+ -t 0.392629333333333 -s 7 -d 2 -p ack -e 40 -c 2 -i 27 -a 2 -x {7.0 4.0 10 ------- null}
- -t 0.392629333333333 -s 7 -d 2 -p ack -e 40 -c 2 -i 27 -a 2 -x {7.0 4.0 10 ------- null}
h -t 0.392629333333333 -s 7 -d 2 -p ack -e 40 -c 2 -i 27 -a 2 -x {7.0 4.0 -1 ------- null}
r -t 0.393813333333333 -s 2 -d 1 -p ack -e 40 -c 2 -i 23 -a 2 -x {7.0 4.0 8 ------- null}
+ -t 0.393813333333333 -s 1 -d 4 -p ack -e 40 -c 2 -i 23 -a 2 -x {7.0 4.0 8 ------- null}
- -t 0.393813333333333 -s 1 -d 4 -p ack -e 40 -c 2 -i 23 -a 2 -x {7.0 4.0 8 ------- null}
h -t 0.393813333333333 -s 1 -d 4 -p ack -e 40 -c 2 -i 23 -a 2 -x {7.0 4.0 -1 ------- null}
r -t 0.393994666666667 -s 4 -d 1 -p tcp -e 1040 -c 2 -i 25 -a 2 -x {4.0 7.0 15 ------- null}
+ -t 0.393994666666667 -s 1 -d 2 -p tcp -e 1040 -c 2 -i 25 -a 2 -x {4.0 7.0 15 ------- null}
r -t 0.394512 -s 1 -d 2 -p tcp -e 1040 -c 2 -i 18 -a 2 -x {4.0 7.0 11 ------- null}
+ -t 0.394512 -s 2 -d 7 -p tcp -e 1040 -c 2 -i 18 -a 2 -x {4.0 7.0 11 ------- null}
- -t 0.394512 -s 2 -d 7 -p tcp -e 1040 -c 2 -i 18 -a 2 -x {4.0 7.0 11 ------- null}
h -t 0.394512 -s 2 -d 7 -p tcp -e 1040 -c 2 -i 18 -a 2 -x {4.0 7.0 -1 ------- null}
r -t 0.394693333333333 -s 7 -d 2 -p ack -e 40 -c 2 -i 27 -a 2 -x {7.0 4.0 10 ------- null}
+ -t 0.394693333333333 -s 2 -d 1 -p ack -e 40 -c 2 -i 27 -a 2 -x {7.0 4.0 10 ------- null}
- -t 0.394693333333333 -s 2 -d 1 -p ack -e 40 -c 2 -i 27 -a 2 -x {7.0 4.0 10 ------- null}
h -t 0.394693333333333 -s 2 -d 1 -p ack -e 40 -c 2 -i 27 -a 2 -x {7.0 4.0 -1 ------- null}
- -t 0.395605333333333 -s 1 -d 2 -p tcp -e 1040 -c 2 -i 21 -a 2 -x {4.0 7.0 14 ------- null}
h -t 0.395605333333333 -s 1 -d 2 -p tcp -e 1040 -c 2 -i 21 -a 2 -x {4.0 7.0 -1 ------- null}
r -t 0.395658666666667 -s 4 -d 1 -p tcp -e 1040 -c 2 -i 26 -a 2 -x {4.0 7.0 16 ------- null}
+ -t 0.395658666666667 -s 1 -d 2 -p tcp -e 1040 -c 2 -i 26 -a 2 -x {4.0 7.0 16 ------- null}
r -t 0.395877333333333 -s 1 -d 4 -p ack -e 40 -c 2 -i 23 -a 2 -x {7.0 4.0 8 ------- null}
+ -t 0.395877333333333 -s 4 -d 1 -p tcp -e 1040 -c 2 -i 28 -a 2 -x {4.0 7.0 17 ------- null}
- -t 0.395877333333333 -s 4 -d 1 -p tcp -e 1040 -c 2 -i 28 -a 2 -x {4.0 7.0 17 ------- null}
h -t 0.395877333333333 -s 4 -d 1 -p tcp -e 1040 -c 2 -i 28 -a 2 -x {4.0 7.0 -1 ------- null}
+ -t 0.395877333333333 -s 4 -d 1 -p tcp -e 1040 -c 2 -i 29 -a 2 -x {4.0 7.0 18 ------- null}
- -t 0.397541333333333 -s 4 -d 1 -p tcp -e 1040 -c 2 -i 29 -a 2 -x {4.0 7.0 18 ------- null}
h -t 0.397541333333333 -s 4 -d 1 -p tcp -e 1040 -c 2 -i 29 -a 2 -x {4.0 7.0 -1 ------- null}
r -t 0.398176 -s 2 -d 7 -p tcp -e 1040 -c 2 -i 18 -a 2 -x {4.0 7.0 11 ------- null}
+ -t 0.398176 -s 7 -d 2 -p ack -e 40 -c 2 -i 30 -a 2 -x {7.0 4.0 11 ------- null}
- -t 0.398176 -s 7 -d 2 -p ack -e 40 -c 2 -i 30 -a 2 -x {7.0 4.0 11 ------- null}
h -t 0.398176 -s 7 -d 2 -p ack -e 40 -c 2 -i 30 -a 2 -x {7.0 4.0 -1 ------- null}
r -t 0.39936 -s 2 -d 1 -p ack -e 40 -c 2 -i 24 -a 2 -x {7.0 4.0 9 ------- null}
+ -t 0.39936 -s 1 -d 4 -p ack -e 40 -c 2 -i 24 -a 2 -x {7.0 4.0 9 ------- null}
- -t 0.39936 -s 1 -d 4 -p ack -e 40 -c 2 -i 24 -a 2 -x {7.0 4.0 9 ------- null}
h -t 0.39936 -s 1 -d 4 -p ack -e 40 -c 2 -i 24 -a 2 -x {7.0 4.0 -1 ------- null}
r -t 0.399541333333333 -s 4 -d 1 -p tcp -e 1040 -c 2 -i 28 -a 2 -x {4.0 7.0 17 ------- null}
+ -t 0.399541333333333 -s 1 -d 2 -p tcp -e 1040 -c 2 -i 28 -a 2 -x {4.0 7.0 17 ------- null}
r -t 0.400058666666667 -s 1 -d 2 -p tcp -e 1040 -c 2 -i 19 -a 2 -x {4.0 7.0 12 ------- null}
+ -t 0.400058666666667 -s 2 -d 7 -p tcp -e 1040 -c 2 -i 19 -a 2 -x {4.0 7.0 12 ------- null}
- -t 0.400058666666667 -s 2 -d 7 -p tcp -e 1040 -c 2 -i 19 -a 2 -x {4.0 7.0 12 ------- null}
h -t 0.400058666666667 -s 2 -d 7 -p tcp -e 1040 -c 2 -i 19 -a 2 -x {4.0 7.0 -1 ------- null}
r -t 0.40024 -s 7 -d 2 -p ack -e 40 -c 2 -i 30 -a 2 -x {7.0 4.0 11 ------- null}
+ -t 0.40024 -s 2 -d 1 -p ack -e 40 -c 2 -i 30 -a 2 -x {7.0 4.0 11 ------- null}
- -t 0.40024 -s 2 -d 1 -p ack -e 40 -c 2 -i 30 -a 2 -x {7.0 4.0 11 ------- null}
h -t 0.40024 -s 2 -d 1 -p ack -e 40 -c 2 -i 30 -a 2 -x {7.0 4.0 -1 ------- null}
- -t 0.401152 -s 1 -d 2 -p tcp -e 1040 -c 2 -i 25 -a 2 -x {4.0 7.0 15 ------- null}
h -t 0.401152 -s 1 -d 2 -p tcp -e 1040 -c 2 -i 25 -a 2 -x {4.0 7.0 -1 ------- null}
r -t 0.401205333333333 -s 4 -d 1 -p tcp -e 1040 -c 2 -i 29 -a 2 -x {4.0 7.0 18 ------- null}
+ -t 0.401205333333333 -s 1 -d 2 -p tcp -e 1040 -c 2 -i 29 -a 2 -x {4.0 7.0 18 ------- null}
r -t 0.401424 -s 1 -d 4 -p ack -e 40 -c 2 -i 24 -a 2 -x {7.0 4.0 9 ------- null}
+ -t 0.401424 -s 4 -d 1 -p tcp -e 1040 -c 2 -i 31 -a 2 -x {4.0 7.0 19 ------- null}