+ 0.25 4 1 tcp 40 ------- 2 4.0 7.0 0 0
- 0.25 4 1 tcp 40 ------- 2 4.0 7.0 0 0
r 0.252064 4 1 tcp 40 ------- 2 4.0 7.0 0 0
+ 0.252064 1 2 tcp 40 ------- 2 4.0 7.0 0 0
- 0.252064 1 2 tcp 40 ------- 2 4.0 7.0 0 0
r 0.262277 1 2 tcp 40 ------- 2 4.0 7.0 0 0
+ 0.262277 2 7 tcp 40 ------- 2 4.0 7.0 0 0
- 0.262277 2 7 tcp 40 ------- 2 4.0 7.0 0 0
r 0.264341 2 7 tcp 40 ------- 2 4.0 7.0 0 0
+ 0.264341 7 2 ack 40 ------- 2 7.0 4.0 0 1
- 0.264341 7 2 ack 40 ------- 2 7.0 4.0 0 1
r 0.266405 7 2 ack 40 ------- 2 7.0 4.0 0 1
+ 0.266405 2 1 ack 40 ------- 2 7.0 4.0 0 1
- 0.266405 2 1 ack 40 ------- 2 7.0 4.0 0 1
r 0.276619 2 1 ack 40 ------- 2 7.0 4.0 0 1
+ 0.276619 1 4 ack 40 ------- 2 7.0 4.0 0 1
- 0.276619 1 4 ack 40 ------- 2 7.0 4.0 0 1
r 0.278683 1 4 ack 40 ------- 2 7.0 4.0 0 1
+ 0.278683 4 1 tcp 1040 ------- 2 4.0 7.0 1 2
- 0.278683 4 1 tcp 1040 ------- 2 4.0 7.0 1 2
+ 0.278683 4 1 tcp 1040 ------- 2 4.0 7.0 2 3
- 0.280347 4 1 tcp 1040 ------- 2 4.0 7.0 2 3
r 0.282347 4 1 tcp 1040 ------- 2 4.0 7.0 1 2
+ 0.282347 1 2 tcp 1040 ------- 2 4.0 7.0 1 2
- 0.282347 1 2 tcp 1040 ------- 2 4.0 7.0 1 2
r 0.284011 4 1 tcp 1040 ------- 2 4.0 7.0 2 3
+ 0.284011 1 2 tcp 1040 ------- 2 4.0 7.0 2 3
- 0.287893 1 2 tcp 1040 ------- 2 4.0 7.0 2 3
r 0.297893 1 2 tcp 1040 ------- 2 4.0 7.0 1 2
+ 0.297893 2 7 tcp 1040 ------- 2 4.0 7.0 1 2
- 0.297893 2 7 tcp 1040 ------- 2 4.0 7.0 1 2
r 0.301557 2 7 tcp 1040 ------- 2 4.0 7.0 1 2
+ 0.301557 7 2 ack 40 ------- 2 7.0 4.0 1 4
- 0.301557 7 2 ack 40 ------- 2 7.0 4.0 1 4
r 0.30344 1 2 tcp 1040 ------- 2 4.0 7.0 2 3
+ 0.30344 2 7 tcp 1040 ------- 2 4.0 7.0 2 3
- 0.30344 2 7 tcp 1040 ------- 2 4.0 7.0 2 3
r 0.303621 7 2 ack 40 ------- 2 7.0 4.0 1 4
+ 0.303621 2 1 ack 40 ------- 2 7.0 4.0 1 4
- 0.303621 2 1 ack 40 ------- 2 7.0 4.0 1 4
r 0.307104 2 7 tcp 1040 ------- 2 4.0 7.0 2 3
+ 0.307104 7 2 ack 40 ------- 2 7.0 4.0 2 5
- 0.307104 7 2 ack 40 ------- 2 7.0 4.0 2 5
r 0.309168 7 2 ack 40 ------- 2 7.0 4.0 2 5
+ 0.309168 2 1 ack 40 ------- 2 7.0 4.0 2 5
- 0.309168 2 1 ack 40 ------- 2 7.0 4.0 2 5
r 0.313835 2 1 ack 40 ------- 2 7.0 4.0 1 4
+ 0.313835 1 4 ack 40 ------- 2 7.0 4.0 1 4
- 0.313835 1 4 ack 40 ------- 2 7.0 4.0 1 4
r 0.315899 1 4 ack 40 ------- 2 7.0 4.0 1 4
+ 0.315899 4 1 tcp 1040 ------- 2 4.0 7.0 3 6
- 0.315899 4 1 tcp 1040 ------- 2 4.0 7.0 3 6
+ 0.315899 4 1 tcp 1040 ------- 2 4.0 7.0 4 7
- 0.317563 4 1 tcp 1040 ------- 2 4.0 7.0 4 7
r 0.319381 2 1 ack 40 ------- 2 7.0 4.0 2 5
+ 0.319381 1 4 ack 40 ------- 2 7.0 4.0 2 5
- 0.319381 1 4 ack 40 ------- 2 7.0 4.0 2 5
r 0.319563 4 1 tcp 1040 ------- 2 4.0 7.0 3 6
+ 0.319563 1 2 tcp 1040 ------- 2 4.0 7.0 3 6
- 0.319563 1 2 tcp 1040 ------- 2 4.0 7.0 3 6
r 0.321227 4 1 tcp 1040 ------- 2 4.0 7.0 4 7
+ 0.321227 1 2 tcp 1040 ------- 2 4.0 7.0 4 7
r 0.321445 1 4 ack 40 ------- 2 7.0 4.0 2 5
+ 0.321445 4 1 tcp 1040 ------- 2 4.0 7.0 5 8
- 0.321445 4 1 tcp 1040 ------- 2 4.0 7.0 5 8
+ 0.321445 4 1 tcp 1040 ------- 2 4.0 7.0 6 9
- 0.323109 4 1 tcp 1040 ------- 2 4.0 7.0 6 9
- 0.325109 1 2 tcp 1040 ------- 2 4.0 7.0 4 7
r 0.325109 4 1 tcp 1040 ------- 2 4.0 7.0 5 8
+ 0.325109 1 2 tcp 1040 ------- 2 4.0 7.0 5 8
r 0.326773 4 1 tcp 1040 ------- 2 4.0 7.0 6 9
+ 0.326773 1 2 tcp 1040 ------- 2 4.0 7.0 6 9
- 0.330656 1 2 tcp 1040 ------- 2 4.0 7.0 5 8
r 0.335109 1 2 tcp 1040 ------- 2 4.0 7.0 3 6
+ 0.335109 2 7 tcp 1040 ------- 2 4.0 7.0 3 6
- 0.335109 2 7 tcp 1040 ------- 2 4.0 7.0 3 6
- 0.336203 1 2 tcp 1040 ------- 2 4.0 7.0 6 9
r 0.338773 2 7 tcp 1040 ------- 2 4.0 7.0 3 6
+ 0.338773 7 2 ack 40 ------- 2 7.0 4.0 3 10
- 0.338773 7 2 ack 40 ------- 2 7.0 4.0 3 10
r 0.340656 1 2 tcp 1040 ------- 2 4.0 7.0 4 7
+ 0.340656 2 7 tcp 1040 ------- 2 4.0 7.0 4 7
- 0.340656 2 7 tcp 1040 ------- 2 4.0 7.0 4 7
r 0.340837 7 2 ack 40 ------- 2 7.0 4.0 3 10
+ 0.340837 2 1 ack 40 ------- 2 7.0 4.0 3 10
- 0.340837 2 1 ack 40 ------- 2 7.0 4.0 3 10
r 0.34432 2 7 tcp 1040 ------- 2 4.0 7.0 4 7
+ 0.34432 7 2 ack 40 ------- 2 7.0 4.0 4 11
- 0.34432 7 2 ack 40 ------- 2 7.0 4.0 4 11
r 0.346203 1 2 tcp 1040 ------- 2 4.0 7.0 5 8
+ 0.346203 2 7 tcp 1040 ------- 2 4.0 7.0 5 8
- 0.346203 2 7 tcp 1040 ------- 2 4.0 7.0 5 8
r 0.346384 7 2 ack 40 ------- 2 7.0 4.0 4 11
+ 0.346384 2 1 ack 40 ------- 2 7.0 4.0 4 11
- 0.346384 2 1 ack 40 ------- 2 7.0 4.0 4 11
r 0.349867 2 7 tcp 1040 ------- 2 4.0 7.0 5 8
+ 0.349867 7 2 ack 40 ------- 2 7.0 4.0 5 12
- 0.349867 7 2 ack 40 ------- 2 7.0 4.0 5 12
r 0.351051 2 1 ack 40 ------- 2 7.0 4.0 3 10
+ 0.351051 1 4 ack 40 ------- 2 7.0 4.0 3 10
- 0.351051 1 4 ack 40 ------- 2 7.0 4.0 3 10
r 0.351749 1 2 tcp 1040 ------- 2 4.0 7.0 6 9
+ 0.351749 2 7 tcp 1040 ------- 2 4.0 7.0 6 9
- 0.351749 2 7 tcp 1040 ------- 2 4.0 7.0 6 9
r 0.351931 7 2 ack 40 ------- 2 7.0 4.0 5 12
+ 0.351931 2 1 ack 40 ------- 2 7.0 4.0 5 12
- 0.351931 2 1 ack 40 ------- 2 7.0 4.0 5 12
r 0.353115 1 4 ack 40 ------- 2 7.0 4.0 3 10
+ 0.353115 4 1 tcp 1040 ------- 2 4.0 7.0 7 13
- 0.353115 4 1 tcp 1040 ------- 2 4.0 7.0 7 13
+ 0.353115 4 1 tcp 1040 ------- 2 4.0 7.0 8 14
- 0.354779 4 1 tcp 1040 ------- 2 4.0 7.0 8 14
r 0.355413 2 7 tcp 1040 ------- 2 4.0 7.0 6 9
+ 0.355413 7 2 ack 40 ------- 2 7.0 4.0 6 15
- 0.355413 7 2 ack 40 ------- 2 7.0 4.0 6 15
r 0.356597 2 1 ack 40 ------- 2 7.0 4.0 4 11
+ 0.356597 1 4 ack 40 ------- 2 7.0 4.0 4 11
- 0.356597 1 4 ack 40 ------- 2 7.0 4.0 4 11
r 0.356779 4 1 tcp 1040 ------- 2 4.0 7.0 7 13
+ 0.356779 1 2 tcp 1040 ------- 2 4.0 7.0 7 13
- 0.356779 1 2 tcp 1040 ------- 2 4.0 7.0 7 13
r 0.357477 7 2 ack 40 ------- 2 7.0 4.0 6 15
+ 0.357477 2 1 ack 40 ------- 2 7.0 4.0 6 15
- 0.357477 2 1 ack 40 ------- 2 7.0 4.0 6 15
r 0.358443 4 1 tcp 1040 ------- 2 4.0 7.0 8 14
+ 0.358443 1 2 tcp 1040 ------- 2 4.0 7.0 8 14
r 0.358661 1 4 ack 40 ------- 2 7.0 4.0 4 11
+ 0.358661 4 1 tcp 1040 ------- 2 4.0 7.0 9 16
- 0.358661 4 1 tcp 1040 ------- 2 4.0 7.0 9 16
+ 0.358661 4 1 tcp 1040 ------- 2 4.0 7.0 10 17
- 0.360325 4 1 tcp 1040 ------- 2 4.0 7.0 10 17
r 0.362144 2 1 ack 40 ------- 2 7.0 4.0 5 12
+ 0.362144 1 4 ack 40 ------- 2 7.0 4.0 5 12
- 0.362144 1 4 ack 40 ------- 2 7.0 4.0 5 12
- 0.362325 1 2 tcp 1040 ------- 2 4.0 7.0 8 14
r 0.362325 4 1 tcp 1040 ------- 2 4.0 7.0 9 16
+ 0.362325 1 2 tcp 1040 ------- 2 4.0 7.0 9 16
r 0.363989 4 1 tcp 1040 ------- 2 4.0 7.0 10 17
+ 0.363989 1 2 tcp 1040 ------- 2 4.0 7.0 10 17
r 0.364208 1 4 ack 40 ------- 2 7.0 4.0 5 12
+ 0.364208 4 1 tcp 1040 ------- 2 4.0 7.0 11 18
- 0.364208 4 1 tcp 1040 ------- 2 4.0 7.0 11 18
+ 0.364208 4 1 tcp 1040 ------- 2 4.0 7.0 12 19
- 0.365872 4 1 tcp 1040 ------- 2 4.0 7.0 12 19
r 0.367691 2 1 ack 40 ------- 2 7.0 4.0 6 15
+ 0.367691 1 4 ack 40 ------- 2 7.0 4.0 6 15
- 0.367691 1 4 ack 40 ------- 2 7.0 4.0 6 15
- 0.367872 1 2 tcp 1040 ------- 2 4.0 7.0 9 16
r 0.367872 4 1 tcp 1040 ------- 2 4.0 7.0 11 18
+ 0.367872 1 2 tcp 1040 ------- 2 4.0 7.0 11 18
r 0.369536 4 1 tcp 1040 ------- 2 4.0 7.0 12 19
+ 0.369536 1 2 tcp 1040 ------- 2 4.0 7.0 12 19
r 0.369755 1 4 ack 40 ------- 2 7.0 4.0 6 15
+ 0.369755 4 1 tcp 1040 ------- 2 4.0 7.0 13 20
- 0.369755 4 1 tcp 1040 ------- 2 4.0 7.0 13 20
+ 0.369755 4 1 tcp 1040 ------- 2 4.0 7.0 14 21
- 0.371419 4 1 tcp 1040 ------- 2 4.0 7.0 14 21
r 0.372325 1 2 tcp 1040 ------- 2 4.0 7.0 7 13
+ 0.372325 2 7 tcp 1040 ------- 2 4.0 7.0 7 13
- 0.372325 2 7 tcp 1040 ------- 2 4.0 7.0 7 13
- 0.373419 1 2 tcp 1040 ------- 2 4.0 7.0 10 17
r 0.373419 4 1 tcp 1040 ------- 2 4.0 7.0 13 20
+ 0.373419 1 2 tcp 1040 ------- 2 4.0 7.0 13 20
r 0.375083 4 1 tcp 1040 ------- 2 4.0 7.0 14 21
+ 0.375083 1 2 tcp 1040 ------- 2 4.0 7.0 14 21
r 0.375989 2 7 tcp 1040 ------- 2 4.0 7.0 7 13
+ 0.375989 7 2 ack 40 ------- 2 7.0 4.0 7 22
- 0.375989 7 2 ack 40 ------- 2 7.0 4.0 7 22
r 0.377872 1 2 tcp 1040 ------- 2 4.0 7.0 8 14
+ 0.377872 2 7 tcp 1040 ------- 2 4.0 7.0 8 14
- 0.377872 2 7 tcp 1040 ------- 2 4.0 7.0 8 14
r 0.378053 7 2 ack 40 ------- 2 7.0 4.0 7 22
+ 0.378053 2 1 ack 40 ------- 2 7.0 4.0 7 22
- 0.378053 2 1 ack 40 ------- 2 7.0 4.0 7 22
- 0.378965 1 2 tcp 1040 ------- 2 4.0 7.0 11 18
r 0.381536 2 7 tcp 1040 ------- 2 4.0 7.0 8 14
+ 0.381536 7 2 ack 40 ------- 2 7.0 4.0 8 23
- 0.381536 7 2 ack 40 ------- 2 7.0 4.0 8 23
r 0.383419 1 2 tcp 1040 ------- 2 4.0 7.0 9 16
+ 0.383419 2 7 tcp 1040 ------- 2 4.0 7.0 9 16
- 0.383419 2 7 tcp 1040 ------- 2 4.0 7.0 9 16
r 0.3836 7 2 ack 40 ------- 2 7.0 4.0 8 23
+ 0.3836 2 1 ack 40 ------- 2 7.0 4.0 8 23
- 0.3836 2 1 ack 40 ------- 2 7.0 4.0 8 23
- 0.384512 1 2 tcp 1040 ------- 2 4.0 7.0 12 19
r 0.387083 2 7 tcp 1040 ------- 2 4.0 7.0 9 16
+ 0.387083 7 2 ack 40 ------- 2 7.0 4.0 9 24
- 0.387083 7 2 ack 40 ------- 2 7.0 4.0 9 24
r 0.388267 2 1 ack 40 ------- 2 7.0 4.0 7 22
+ 0.388267 1 4 ack 40 ------- 2 7.0 4.0 7 22
- 0.388267 1 4 ack 40 ------- 2 7.0 4.0 7 22
r 0.388965 1 2 tcp 1040 ------- 2 4.0 7.0 10 17
+ 0.388965 2 7 tcp 1040 ------- 2 4.0 7.0 10 17
- 0.388965 2 7 tcp 1040 ------- 2 4.0 7.0 10 17
r 0.389147 7 2 ack 40 ------- 2 7.0 4.0 9 24
+ 0.389147 2 1 ack 40 ------- 2 7.0 4.0 9 24
- 0.389147 2 1 ack 40 ------- 2 7.0 4.0 9 24
- 0.390059 1 2 tcp 1040 ------- 2 4.0 7.0 13 20
r 0.390331 1 4 ack 40 ------- 2 7.0 4.0 7 22
+ 0.390331 4 1 tcp 1040 ------- 2 4.0 7.0 15 25
- 0.390331 4 1 tcp 1040 ------- 2 4.0 7.0 15 25
+ 0.390331 4 1 tcp 1040 ------- 2 4.0 7.0 16 26
- 0.391995 4 1 tcp 1040 ------- 2 4.0 7.0 16 26
r 0.392629 2 7 tcp 1040 ------- 2 4.0 7.0 10 17
+ 0.392629 7 2 ack 40 ------- 2 7.0 4.0 10 27
- 0.392629 7 2 ack 40 ------- 2 7.0 4.0 10 27
r 0.393813 2 1 ack 40 ------- 2 7.0 4.0 8 23
+ 0.393813 1 4 ack 40 ------- 2 7.0 4.0 8 23
- 0.393813 1 4 ack 40 ------- 2 7.0 4.0 8 23
r 0.393995 4 1 tcp 1040 ------- 2 4.0 7.0 15 25
+ 0.393995 1 2 tcp 1040 ------- 2 4.0 7.0 15 25
r 0.394512 1 2 tcp 1040 ------- 2 4.0 7.0 11 18
+ 0.394512 2 7 tcp 1040 ------- 2 4.0 7.0 11 18
- 0.394512 2 7 tcp 1040 ------- 2 4.0 7.0 11 18
r 0.394693 7 2 ack 40 ------- 2 7.0 4.0 10 27
+ 0.394693 2 1 ack 40 ------- 2 7.0 4.0 10 27
- 0.394693 2 1 ack 40 ------- 2 7.0 4.0 10 27
- 0.395605 1 2 tcp 1040 ------- 2 4.0 7.0 14 21
r 0.395659 4 1 tcp 1040 ------- 2 4.0 7.0 16 26
+ 0.395659 1 2 tcp 1040 ------- 2 4.0 7.0 16 26
r 0.395877 1 4 ack 40 ------- 2 7.0 4.0 8 23
+ 0.395877 4 1 tcp 1040 ------- 2 4.0 7.0 17 28
- 0.395877 4 1 tcp 1040 ------- 2 4.0 7.0 17 28
+ 0.395877 4 1 tcp 1040 ------- 2 4.0 7.0 18 29
- 0.397541 4 1 tcp 1040 ------- 2 4.0 7.0 18 29
r 0.398176 2 7 tcp 1040 ------- 2 4.0 7.0 11 18
+ 0.398176 7 2 ack 40 ------- 2 7.0 4.0 11 30
- 0.398176 7 2 ack 40 ------- 2 7.0 4.0 11 30
r 0.39936 2 1 ack 40 ------- 2 7.0 4.0 9 24
+ 0.39936 1 4 ack 40 ------- 2 7.0 4.0 9 24
- 0.39936 1 4 ack 40 ------- 2 7.0 4.0 9 24
r 0.399541 4 1 tcp 1040 ------- 2 4.0 7.0 17 28
+ 0.399541 1 2 tcp 1040 ------- 2 4.0 7.0 17 28
r 0.400059 1 2 tcp 1040 ------- 2 4.0 7.0 12 19
+ 0.400059 2 7 tcp 1040 ------- 2 4.0 7.0 12 19
- 0.400059 2 7 tcp 1040 ------- 2 4.0 7.0 12 19
r 0.40024 7 2 ack 40 ------- 2 7.0 4.0 11 30
+ 0.40024 2 1 ack 40 ------- 2 7.0 4.0 11 30
- 0.40024 2 1 ack 40 ------- 2 7.0 4.0 11 30
- 0.401152 1 2 tcp 1040 ------- 2 4.0 7.0 15 25
r 0.401205 4 1 tcp 1040 ------- 2 4.0 7.0 18 29
+ 0.401205 1 2 tcp 1040 ------- 2 4.0 7.0 18 29
r 0.401424 1 4 ack 40 ------- 2 7.0 4.0 9 24
+ 0.401424 4 1 tcp 1040 ------- 2 4.0 7.0 19 31
- 0.401424 4 1 tcp 1040 ------- 2 4.0 7.0 19 31
+ 0.401424 4 1 tcp 1040 ------- 2 4.0 7.0 20 32
- 0.403088 4 1 tcp 1040 ------- 2 4.0 7.0 20 32
r 0.403723 2 7 tcp 1040 ------- 2 4.0 7.0 12 19
+ 0.403723 7 2 ack 40 ------- 2 7.0 4.0 12 33
- 0.403723 7 2 ack 40 ------- 2 7.0 4.0 12 33
r 0.404907 2 1 ack 40 ------- 2 7.0 4.0 10 27
+ 0.404907 1 4 ack 40 ------- 2 7.0 4.0 10 27
- 0.404907 1 4 ack 40 ------- 2 7.0 4.0 10 27
r 0.405088 4 1 tcp 1040 ------- 2 4.0 7.0 19 31
+ 0.405088 1 2 tcp 1040 ------- 2 4.0 7.0 19 31
r 0.405605 1 2 tcp 1040 ------- 2 4.0 7.0 13 20
+ 0.405605 2 7 tcp 1040 ------- 2 4.0 7.0 13 20
- 0.405605 2 7 tcp 1040 ------- 2 4.0 7.0 13 20
r 0.405787 7 2 ack 40 ------- 2 7.0 4.0 12 33
+ 0.405787 2 1 ack 40 ------- 2 7.0 4.0 12 33
- 0.405787 2 1 ack 40 ------- 2 7.0 4.0 12 33
- 0.406699 1 2 tcp 1040 ------- 2 4.0 7.0 16 26
r 0.406752 4 1 tcp 1040 ------- 2 4.0 7.0 20 32
+ 0.406752 1 2 tcp 1040 ------- 2 4.0 7.0 20 32
r 0.406971 1 4 ack 40 ------- 2 7.0 4.0 10 27
+ 0.406971 4 1 tcp 1040 ------- 2 4.0 7.0 21 34
- 0.406971 4 1 tcp 1040 ------- 2 4.0 7.0 21 34
+ 0.406971 4 1 tcp 1040 ------- 2 4.0 7.0 22 35
- 0.408635 4 1 tcp 1040 ------- 2 4.0 7.0 22 35
r 0.409269 2 7 tcp 1040 ------- 2 4.0 7.0 13 20
+ 0.409269 7 2 ack 40 ------- 2 7.0 4.0 13 36
- 0.409269 7 2 ack 40 ------- 2 7.0 4.0 13 36
r 0.410453 2 1 ack 40 ------- 2 7.0 4.0 11 30
+ 0.410453 1 4 ack 40 ------- 2 7.0 4.0 11 30
- 0.410453 1 4 ack 40 ------- 2 7.0 4.0 11 30
r 0.410635 4 1 tcp 1040 ------- 2 4.0 7.0 21 34
+ 0.410635 1 2 tcp 1040 ------- 2 4.0 7.0 21 34
r 0.411152 1 2 tcp 1040 ------- 2 4.0 7.0 14 21
+ 0.411152 2 7 tcp 1040 ------- 2 4.0 7.0 14 21
- 0.411152 2 7 tcp 1040 ------- 2 4.0 7.0 14 21
r 0.411333 7 2 ack 40 ------- 2 7.0 4.0 13 36
+ 0.411333 2 1 ack 40 ------- 2 7.0 4.0 13 36
- 0.411333 2 1 ack 40 ------- 2 7.0 4.0 13 36
- 0.412245 1 2 tcp 1040 ------- 2 4.0 7.0 17 28
r 0.412299 4 1 tcp 1040 ------- 2 4.0 7.0 22 35
+ 0.412299 1 2 tcp 1040 ------- 2 4.0 7.0 22 35
r 0.412517 1 4 ack 40 ------- 2 7.0 4.0 11 30
+ 0.412517 4 1 tcp 1040 ------- 2 4.0 7.0 23 37
- 0.412517 4 1 tcp 1040 ------- 2 4.0 7.0 23 37
+ 0.412517 4 1 tcp 1040 ------- 2 4.0 7.0 24 38
- 0.414181 4 1 tcp 1040 ------- 2 4.0 7.0 24 38
r 0.414816 2 7 tcp 1040 ------- 2 4.0 7.0 14 21
+ 0.414816 7 2 ack 40 ------- 2 7.0 4.0 14 39
- 0.414816 7 2 ack 40 ------- 2 7.0 4.0 14 39
r 0.416 2 1 ack 40 ------- 2 7.0 4.0 12 33
+ 0.416 1 4 ack 40 ------- 2 7.0 4.0 12 33
- 0.416 1 4 ack 40 ------- 2 7.0 4.0 12 33
r 0.416181 4 1 tcp 1040 ------- 2 4.0 7.0 23 37
+ 0.416181 1 2 tcp 1040 ------- 2 4.0 7.0 23 37
r 0.416699 1 2 tcp 1040 ------- 2 4.0 7.0 15 25
+ 0.416699 2 7 tcp 1040 ------- 2 4.0 7.0 15 25
- 0.416699 2 7 tcp 1040 ------- 2 4.0 7.0 15 25
r 0.41688 7 2 ack 40 ------- 2 7.0 4.0 14 39
+ 0.41688 2 1 ack 40 ------- 2 7.0 4.0 14 39
- 0.41688 2 1 ack 40 ------- 2 7.0 4.0 14 39
- 0.417792 1 2 tcp 1040 ------- 2 4.0 7.0 18 29
r 0.417845 4 1 tcp 1040 ------- 2 4.0 7.0 24 38
+ 0.417845 1 2 tcp 1040 ------- 2 4.0 7.0 24 38
r 0.418064 1 4 ack 40 ------- 2 7.0 4.0 12 33
+ 0.418064 4 1 tcp 1040 ------- 2 4.0 7.0 25 40
- 0.418064 4 1 tcp 1040 ------- 2 4.0 7.0 25 40
+ 0.418064 4 1 tcp 1040 ------- 2 4.0 7.0 26 41
- 0.419728 4 1 tcp 1040 ------- 2 4.0 7.0 26 41
r 0.420363 2 7 tcp 1040 ------- 2 4.0 7.0 15 25
+ 0.420363 7 2 ack 40 ------- 2 7.0 4.0 15 42
- 0.420363 7 2 ack 40 ------- 2 7.0 4.0 15 42
r 0.421547 2 1 ack 40 ------- 2 7.0 4.0 13 36
+ 0.421547 1 4 ack 40 ------- 2 7.0 4.0 13 36
- 0.421547 1 4 ack 40 ------- 2 7.0 4.0 13 36
r 0.421728 4 1 tcp 1040 ------- 2 4.0 7.0 25 40
+ 0.421728 1 2 tcp 1040 ------- 2 4.0 7.0 25 40
r 0.422245 1 2 tcp 1040 ------- 2 4.0 7.0 16 26
+ 0.422245 2 7 tcp 1040 ------- 2 4.0 7.0 16 26
- 0.422245 2 7 tcp 1040 ------- 2 4.0 7.0 16 26
r 0.422427 7 2 ack 40 ------- 2 7.0 4.0 15 42
+ 0.422427 2 1 ack 40 ------- 2 7.0 4.0 15 42
- 0.422427 2 1 ack 40 ------- 2 7.0 4.0 15 42
- 0.423339 1 2 tcp 1040 ------- 2 4.0 7.0 19 31
r 0.423392 4 1 tcp 1040 ------- 2 4.0 7.0 26 41
+ 0.423392 1 2 tcp 1040 ------- 2 4.0 7.0 26 41
r 0.423611 1 4 ack 40 ------- 2 7.0 4.0 13 36
+ 0.423611 4 1 tcp 1040 ------- 2 4.0 7.0 27 43
- 0.423611 4 1 tcp 1040 ------- 2 4.0 7.0 27 43
+ 0.423611 4 1 tcp 1040 ------- 2 4.0 7.0 28 44
- 0.425275 4 1 tcp 1040 ------- 2 4.0 7.0 28 44
r 0.425909 2 7 tcp 1040 ------- 2 4.0 7.0 16 26
+ 0.425909 7 2 ack 40 ------- 2 7.0 4.0 16 45
- 0.425909 7 2 ack 40 ------- 2 7.0 4.0 16 45
r 0.427093 2 1 ack 40 ------- 2 7.0 4.0 14 39
+ 0.427093 1 4 ack 40 ------- 2 7.0 4.0 14 39
- 0.427093 1 4 ack 40 ------- 2 7.0 4.0 14 39
r 0.427275 4 1 tcp 1040 ------- 2 4.0 7.0 27 43
+ 0.427275 1 2 tcp 1040 ------- 2 4.0 7.0 27 43
r 0.427792 1 2 tcp 1040 ------- 2 4.0 7.0 17 28
+ 0.427792 2 7 tcp 1040 ------- 2 4.0 7.0 17 28
- 0.427792 2 7 tcp 1040 ------- 2 4.0 7.0 17 28
r 0.427973 7 2 ack 40 ------- 2 7.0 4.0 16 45
+ 0.427973 2 1 ack 40 ------- 2 7.0 4.0 16 45
- 0.427973 2 1 ack 40 ------- 2 7.0 4.0 16 45
- 0.428885 1 2 tcp 1040 ------- 2 4.0 7.0 20 32
r 0.428939 4 1 tcp 1040 ------- 2 4.0 7.0 28 44
+ 0.428939 1 2 tcp 1040 ------- 2 4.0 7.0 28 44
r 0.429157 1 4 ack 40 ------- 2 7.0 4.0 14 39
+ 0.429157 4 1 tcp 1040 ------- 2 4.0 7.0 29 46
- 0.429157 4 1 tcp 1040 ------- 2 4.0 7.0 29 46
+ 0.429157 4 1 tcp 1040 ------- 2 4.0 7.0 30 47
- 0.430821 4 1 tcp 1040 ------- 2 4.0 7.0 30 47
r 0.431456 2 7 tcp 1040 ------- 2 4.0 7.0 17 28
+ 0.431456 7 2 ack 40 ------- 2 7.0 4.0 17 48
- 0.431456 7 2 ack 40 ------- 2 7.0 4.0 17 48
r 0.43264 2 1 ack 40 ------- 2 7.0 4.0 15 42
+ 0.43264 1 4 ack 40 ------- 2 7.0 4.0 15 42
- 0.43264 1 4 ack 40 ------- 2 7.0 4.0 15 42
r 0.432821 4 1 tcp 1040 ------- 2 4.0 7.0 29 46
+ 0.432821 1 2 tcp 1040 ------- 2 4.0 7.0 29 46
r 0.433339 1 2 tcp 1040 ------- 2 4.0 7.0 18 29
+ 0.433339 2 7 tcp 1040 ------- 2 4.0 7.0 18 29
- 0.433339 2 7 tcp 1040 ------- 2 4.0 7.0 18 29
r 0.43352 7 2 ack 40 ------- 2 7.0 4.0 17 48
+ 0.43352 2 1 ack 40 ------- 2 7.0 4.0 17 48
- 0.43352 2 1 ack 40 ------- 2 7.0 4.0 17 48
- 0.434432 1 2 tcp 1040 ------- 2 4.0 7.0 21 34
r 0.434485 4 1 tcp 1040 ------- 2 4.0 7.0 30 47
+ 0.434485 1 2 tcp 1040 ------- 2 4.0 7.0 30 47
r 0.434704 1 4 ack 40 ------- 2 7.0 4.0 15 42
+ 0.434704 4 1 tcp 1040 ------- 2 4.0 7.0 31 49
- 0.434704 4 1 tcp 1040 ------- 2 4.0 7.0 31 49
+ 0.434704 4 1 tcp 1040 ------- 2 4.0 7.0 32 50
- 0.436368 4 1 tcp 1040 ------- 2 4.0 7.0 32 50
r 0.437003 2 7 tcp 1040 ------- 2 4.0 7.0 18 29
+ 0.437003 7 2 ack 40 ------- 2 7.0 4.0 18 51
- 0.437003 7 2 ack 40 ------- 2 7.0 4.0 18 51
r 0.438187 2 1 ack 40 ------- 2 7.0 4.0 16 45
+ 0.438187 1 4 ack 40 ------- 2 7.0 4.0 16 45
- 0.438187 1 4 ack 40 ------- 2 7.0 4.0 16 45
r 0.438368 4 1 tcp 1040 ------- 2 4.0 7.0 31 49
+ 0.438368 1 2 tcp 1040 ------- 2 4.0 7.0 31 49
r 0.438885 1 2 tcp 1040 ------- 2 4.0 7.0 19 31
+ 0.438885 2 7 tcp 1040 ------- 2 4.0 7.0 19 31
- 0.438885 2 7 tcp 1040 ------- 2 4.0 7.0 19 31
r 0.439067 7 2 ack 40 ------- 2 7.0 4.0 18 51
+ 0.439067 2 1 ack 40 ------- 2 7.0 4.0 18 51
- 0.439067 2 1 ack 40 ------- 2 7.0 4.0 18 51
- 0.439979 1 2 tcp 1040 ------- 2 4.0 7.0 22 35
r 0.440032 4 1 tcp 1040 ------- 2 4.0 7.0 32 50
+ 0.440032 1 2 tcp 1040 ------- 2 4.0 7.0 32 50
r 0.440251 1 4 ack 40 ------- 2 7.0 4.0 16 45
+ 0.440251 4 1 tcp 1040 ------- 2 4.0 7.0 33 52
- 0.440251 4 1 tcp 1040 ------- 2 4.0 7.0 33 52
+ 0.440251 4 1 tcp 1040 ------- 2 4.0 7.0 34 53
- 0.441915 4 1 tcp 1040 ------- 2 4.0 7.0 34 53
r 0.442549 2 7 tcp 1040 ------- 2 4.0 7.0 19 31
+ 0.442549 7 2 ack 40 ------- 2 7.0 4.0 19 54
- 0.442549 7 2 ack 40 ------- 2 7.0 4.0 19 54
r 0.443733 2 1 ack 40 ------- 2 7.0 4.0 17 48
+ 0.443733 1 4 ack 40 ------- 2 7.0 4.0 17 48
- 0.443733 1 4 ack 40 ------- 2 7.0 4.0 17 48
r 0.443915 4 1 tcp 1040 ------- 2 4.0 7.0 33 52
+ 0.443915 1 2 tcp 1040 ------- 2 4.0 7.0 33 52
r 0.444432 1 2 tcp 1040 ------- 2 4.0 7.0 20 32
+ 0.444432 2 7 tcp 1040 ------- 2 4.0 7.0 20 32
- 0.444432 2 7 tcp 1040 ------- 2 4.0 7.0 20 32
r 0.444613 7 2 ack 40 ------- 2 7.0 4.0 19 54
+ 0.444613 2 1 ack 40 ------- 2 7.0 4.0 19 54
- 0.444613 2 1 ack 40 ------- 2 7.0 4.0 19 54
- 0.445525 1 2 tcp 1040 ------- 2 4.0 7.0 23 37
r 0.445579 4 1 tcp 1040 ------- 2 4.0 7.0 34 53
+ 0.445579 1 2 tcp 1040 ------- 2 4.0 7.0 34 53
r 0.445797 1 4 ack 40 ------- 2 7.0 4.0 17 48
+ 0.445797 4 1 tcp 1040 ------- 2 4.0 7.0 35 55
- 0.445797 4 1 tcp 1040 ------- 2 4.0 7.0 35 55
+ 0.445797 4 1 tcp 1040 ------- 2 4.0 7.0 36 56
- 0.447461 4 1 tcp 1040 ------- 2 4.0 7.0 36 56
r 0.448096 2 7 tcp 1040 ------- 2 4.0 7.0 20 32
+ 0.448096 7 2 ack 40 ------- 2 7.0 4.0 20 57
- 0.448096 7 2 ack 40 ------- 2 7.0 4.0 20 57
r 0.44928 2 1 ack 40 ------- 2 7.0 4.0 18 51
+ 0.44928 1 4 ack 40 ------- 2 7.0 4.0 18 51
- 0.44928 1 4 ack 40 ------- 2 7.0 4.0 18 51
r 0.449461 4 1 tcp 1040 ------- 2 4.0 7.0 35 55
+ 0.449461 1 2 tcp 1040 ------- 2 4.0 7.0 35 55
r 0.449979 1 2 tcp 1040 ------- 2 4.0 7.0 21 34
+ 0.449979 2 7 tcp 1040 ------- 2 4.0 7.0 21 34
- 0.449979 2 7 tcp 1040 ------- 2 4.0 7.0 21 34
r 0.45016 7 2 ack 40 ------- 2 7.0 4.0 20 57
+ 0.45016 2 1 ack 40 ------- 2 7.0 4.0 20 57
- 0.45016 2 1 ack 40 ------- 2 7.0 4.0 20 57
- 0.451072 1 2 tcp 1040 ------- 2 4.0 7.0 24 38
r 0.451125 4 1 tcp 1040 ------- 2 4.0 7.0 36 56
+ 0.451125 1 2 tcp 1040 ------- 2 4.0 7.0 36 56
r 0.451344 1 4 ack 40 ------- 2 7.0 4.0 18 51
+ 0.451344 4 1 tcp 1040 ------- 2 4.0 7.0 37 58
- 0.451344 4 1 tcp 1040 ------- 2 4.0 7.0 37 58
+ 0.451344 4 1 tcp 1040 ------- 2 4.0 7.0 38 59
- 0.453008 4 1 tcp 1040 ------- 2 4.0 7.0 38 59
r 0.453643 2 7 tcp 1040 ------- 2 4.0 7.0 21 34
+ 0.453643 7 2 ack 40 ------- 2 7.0 4.0 21 60
- 0.453643 7 2 ack 40 ------- 2 7.0 4.0 21 60
r 0.454827 2 1 ack 40 ------- 2 7.0 4.0 19 54
+ 0.454827 1 4 ack 40 ------- 2 7.0 4.0 19 54
- 0.454827 1 4 ack 40 ------- 2 7.0 4.0 19 54
r 0.455008 4 1 tcp 1040 ------- 2 4.0 7.0 37 58
+ 0.455008 1 2 tcp 1040 ------- 2 4.0 7.0 37 58
r 0.455525 1 2 tcp 1040 ------- 2 4.0 7.0 22 35
+ 0.455525 2 7 tcp 1040 ------- 2 4.0 7.0 22 35
- 0.455525 2 7 tcp 1040 ------- 2 4.0 7.0 22 35
r 0.455707 7 2 ack 40 ------- 2 7.0 4.0 21 60
+ 0.455707 2 1 ack 40 ------- 2 7.0 4.0 21 60
- 0.455707 2 1 ack 40 ------- 2 7.0 4.0 21 60
- 0.456619 1 2 tcp 1040 ------- 2 4.0 7.0 25 40
r 0.456672 4 1 tcp 1040 ------- 2 4.0 7.0 38 59
+ 0.456672 1 2 tcp 1040 ------- 2 4.0 7.0 38 59
r 0.456891 1 4 ack 40 ------- 2 7.0 4.0 19 54
+ 0.456891 4 1 tcp 1040 ------- 2 4.0 7.0 39 61
- 0.456891 4 1 tcp 1040 ------- 2 4.0 7.0 39 61
r 0.459189 2 7 tcp 1040 ------- 2 4.0 7.0 22 35
+ 0.459189 7 2 ack 40 ------- 2 7.0 4.0 22 62
- 0.459189 7 2 ack 40 ------- 2 7.0 4.0 22 62
r 0.460373 2 1 ack 40 ------- 2 7.0 4.0 20 57
+ 0.460373 1 4 ack 40 ------- 2 7.0 4.0 20 57
- 0.460373 1 4 ack 40 ------- 2 7.0 4.0 20 57
r 0.460555 4 1 tcp 1040 ------- 2 4.0 7.0 39 61
+ 0.460555 1 2 tcp 1040 ------- 2 4.0 7.0 39 61
r 0.461072 1 2 tcp 1040 ------- 2 4.0 7.0 23 37
+ 0.461072 2 7 tcp 1040 ------- 2 4.0 7.0 23 37
- 0.461072 2 7 tcp 1040 ------- 2 4.0 7.0 23 37
r 0.461253 7 2 ack 40 ------- 2 7.0 4.0 22 62
+ 0.461253 2 1 ack 40 ------- 2 7.0 4.0 22 62
- 0.461253 2 1 ack 40 ------- 2 7.0 4.0 22 62
- 0.462165 1 2 tcp 1040 ------- 2 4.0 7.0 26 41
r 0.462437 1 4 ack 40 ------- 2 7.0 4.0 20 57
+ 0.462437 4 1 tcp 1040 ------- 2 4.0 7.0 40 63
- 0.462437 4 1 tcp 1040 ------- 2 4.0 7.0 40 63
r 0.464736 2 7 tcp 1040 ------- 2 4.0 7.0 23 37
+ 0.464736 7 2 ack 40 ------- 2 7.0 4.0 23 64
- 0.464736 7 2 ack 40 ------- 2 7.0 4.0 23 64
r 0.46592 2 1 ack 40 ------- 2 7.0 4.0 21 60
+ 0.46592 1 4 ack 40 ------- 2 7.0 4.0 21 60
- 0.46592 1 4 ack 40 ------- 2 7.0 4.0 21 60
r 0.466101 4 1 tcp 1040 ------- 2 4.0 7.0 40 63
+ 0.466101 1 2 tcp 1040 ------- 2 4.0 7.0 40 63
r 0.466619 1 2 tcp 1040 ------- 2 4.0 7.0 24 38
+ 0.466619 2 7 tcp 1040 ------- 2 4.0 7.0 24 38
- 0.466619 2 7 tcp 1040 ------- 2 4.0 7.0 24 38
r 0.4668 7 2 ack 40 ------- 2 7.0 4.0 23 64
+ 0.4668 2 1 ack 40 ------- 2 7.0 4.0 23 64
- 0.4668 2 1 ack 40 ------- 2 7.0 4.0 23 64
- 0.467712 1 2 tcp 1040 ------- 2 4.0 7.0 27 43
r 0.467984 1 4 ack 40 ------- 2 7.0 4.0 21 60
+ 0.467984 4 1 tcp 1040 ------- 2 4.0 7.0 41 65
- 0.467984 4 1 tcp 1040 ------- 2 4.0 7.0 41 65
r 0.470283 2 7 tcp 1040 ------- 2 4.0 7.0 24 38
+ 0.470283 7 2 ack 40 ------- 2 7.0 4.0 24 66
- 0.470283 7 2 ack 40 ------- 2 7.0 4.0 24 66
r 0.471467 2 1 ack 40 ------- 2 7.0 4.0 22 62
+ 0.471467 1 4 ack 40 ------- 2 7.0 4.0 22 62
- 0.471467 1 4 ack 40 ------- 2 7.0 4.0 22 62
r 0.471648 4 1 tcp 1040 ------- 2 4.0 7.0 41 65
+ 0.471648 1 2 tcp 1040 ------- 2 4.0 7.0 41 65
r 0.472165 1 2 tcp 1040 ------- 2 4.0 7.0 25 40
+ 0.472165 2 7 tcp 1040 ------- 2 4.0 7.0 25 40
- 0.472165 2 7 tcp 1040 ------- 2 4.0 7.0 25 40
r 0.472347 7 2 ack 40 ------- 2 7.0 4.0 24 66
+ 0.472347 2 1 ack 40 ------- 2 7.0 4.0 24 66
- 0.472347 2 1 ack 40 ------- 2 7.0 4.0 24 66
- 0.473259 1 2 tcp 1040 ------- 2 4.0 7.0 28 44
r 0.473531 1 4 ack 40 ------- 2 7.0 4.0 22 62
+ 0.473531 4 1 tcp 1040 ------- 2 4.0 7.0 42 67
- 0.473531 4 1 tcp 1040 ------- 2 4.0 7.0 42 67
r 0.475829 2 7 tcp 1040 ------- 2 4.0 7.0 25 40
+ 0.475829 7 2 ack 40 ------- 2 7.0 4.0 25 68
- 0.475829 7 2 ack 40 ------- 2 7.0 4.0 25 68
r 0.477013 2 1 ack 40 ------- 2 7.0 4.0 23 64
+ 0.477013 1 4 ack 40 ------- 2 7.0 4.0 23 64
- 0.477013 1 4 ack 40 ------- 2 7.0 4.0 23 64
r 0.477195 4 1 tcp 1040 ------- 2 4.0 7.0 42 67
+ 0.477195 1 2 tcp 1040 ------- 2 4.0 7.0 42 67
r 0.477712 1 2 tcp 1040 ------- 2 4.0 7.0 26 41
+ 0.477712 2 7 tcp 1040 ------- 2 4.0 7.0 26 41
- 0.477712 2 7 tcp 1040 ------- 2 4.0 7.0 26 41
r 0.477893 7 2 ack 40 ------- 2 7.0 4.0 25 68
+ 0.477893 2 1 ack 40 ------- 2 7.0 4.0 25 68
- 0.477893 2 1 ack 40 ------- 2 7.0 4.0 25 68
- 0.478805 1 2 tcp 1040 ------- 2 4.0 7.0 29 46
r 0.479077 1 4 ack 40 ------- 2 7.0 4.0 23 64
+ 0.479077 4 1 tcp 1040 ------- 2 4.0 7.0 43 69
- 0.479077 4 1 tcp 1040 ------- 2 4.0 7.0 43 69
r 0.481376 2 7 tcp 1040 ------- 2 4.0 7.0 26 41
+ 0.481376 7 2 ack 40 ------- 2 7.0 4.0 26 70
- 0.481376 7 2 ack 40 ------- 2 7.0 4.0 26 70
r 0.48256 2 1 ack 40 ------- 2 7.0 4.0 24 66
+ 0.48256 1 4 ack 40 ------- 2 7.0 4.0 24 66
- 0.48256 1 4 ack 40 ------- 2 7.0 4.0 24 66
r 0.482741 4 1 tcp 1040 ------- 2 4.0 7.0 43 69
+ 0.482741 1 2 tcp 1040 ------- 2 4.0 7.0 43 69
r 0.483259 1 2 tcp 1040 ------- 2 4.0 7.0 27 43
+ 0.483259 2 7 tcp 1040 ------- 2 4.0 7.0 27 43
- 0.483259 2 7 tcp 1040 ------- 2 4.0 7.0 27 43
r 0.48344 7 2 ack 40 ------- 2 7.0 4.0 26 70
+ 0.48344 2 1 ack 40 ------- 2 7.0 4.0 26 70
- 0.48344 2 1 ack 40 ------- 2 7.0 4.0 26 70
- 0.484352 1 2 tcp 1040 ------- 2 4.0 7.0 30 47
r 0.484624 1 4 ack 40 ------- 2 7.0 4.0 24 66
+ 0.484624 4 1 tcp 1040 ------- 2 4.0 7.0 44 71
- 0.484624 4 1 tcp 1040 ------- 2 4.0 7.0 44 71
r 0.486923 2 7 tcp 1040 ------- 2 4.0 7.0 27 43
+ 0.486923 7 2 ack 40 ------- 2 7.0 4.0 27 72
- 0.486923 7 2 ack 40 ------- 2 7.0 4.0 27 72
r 0.488107 2 1 ack 40 ------- 2 7.0 4.0 25 68
+ 0.488107 1 4 ack 40 ------- 2 7.0 4.0 25 68
- 0.488107 1 4 ack 40 ------- 2 7.0 4.0 25 68
r 0.488288 4 1 tcp 1040 ------- 2 4.0 7.0 44 71
+ 0.488288 1 2 tcp 1040 ------- 2 4.0 7.0 44 71
r 0.488805 1 2 tcp 1040 ------- 2 4.0 7.0 28 44
+ 0.488805 2 7 tcp 1040 ------- 2 4.0 7.0 28 44
- 0.488805 2 7 tcp 1040 ------- 2 4.0 7.0 28 44
r 0.488987 7 2 ack 40 ------- 2 7.0 4.0 27 72
+ 0.488987 2 1 ack 40 ------- 2 7.0 4.0 27 72
- 0.488987 2 1 ack 40 ------- 2 7.0 4.0 27 72
- 0.489899 1 2 tcp 1040 ------- 2 4.0 7.0 31 49
r 0.490171 1 4 ack 40 ------- 2 7.0 4.0 25 68
+ 0.490171 4 1 tcp 1040 ------- 2 4.0 7.0 45 73
- 0.490171 4 1 tcp 1040 ------- 2 4.0 7.0 45 73
r 0.492469 2 7 tcp 1040 ------- 2 4.0 7.0 28 44
+ 0.492469 7 2 ack 40 ------- 2 7.0 4.0 28 74
- 0.492469 7 2 ack 40 ------- 2 7.0 4.0 28 74
r 0.493653 2 1 ack 40 ------- 2 7.0 4.0 26 70
+ 0.493653 1 4 ack 40 ------- 2 7.0 4.0 26 70
- 0.493653 1 4 ack 40 ------- 2 7.0 4.0 26 70
r 0.493835 4 1 tcp 1040 ------- 2 4.0 7.0 45 73
+ 0.493835 1 2 tcp 1040 ------- 2 4.0 7.0 45 73
r 0.494352 1 2 tcp 1040 ------- 2 4.0 7.0 29 46
+ 0.494352 2 7 tcp 1040 ------- 2 4.0 7.0 29 46
- 0.494352 2 7 tcp 1040 ------- 2 4.0 7.0 29 46
r 0.494533 7 2 ack 40 ------- 2 7.0 4.0 28 74
+ 0.494533 2 1 ack 40 ------- 2 7.0 4.0 28 74
- 0.494533 2 1 ack 40 ------- 2 7.0 4.0 28 74
- 0.495445 1 2 tcp 1040 ------- 2 4.0 7.0 32 50
r 0.495717 1 4 ack 40 ------- 2 7.0 4.0 26 70
+ 0.495717 4 1 tcp 1040 ------- 2 4.0 7.0 46 75
- 0.495717 4 1 tcp 1040 ------- 2 4.0 7.0 46 75
r 0.498016 2 7 tcp 1040 ------- 2 4.0 7.0 29 46
+ 0.498016 7 2 ack 40 ------- 2 7.0 4.0 29 76
- 0.498016 7 2 ack 40 ------- 2 7.0 4.0 29 76
r 0.4992 2 1 ack 40 ------- 2 7.0 4.0 27 72
+ 0.4992 1 4 ack 40 ------- 2 7.0 4.0 27 72
- 0.4992 1 4 ack 40 ------- 2 7.0 4.0 27 72
r 0.499381 4 1 tcp 1040 ------- 2 4.0 7.0 46 75
+ 0.499381 1 2 tcp 1040 ------- 2 4.0 7.0 46 75
r 0.499899 1 2 tcp 1040 ------- 2 4.0 7.0 30 47
+ 0.499899 2 7 tcp 1040 ------- 2 4.0 7.0 30 47
- 0.499899 2 7 tcp 1040 ------- 2 4.0 7.0 30 47
+ 0.5 0 1 cbr 210 ------- 0 0.0 3.0 0 77
- 0.5 0 1 cbr 210 ------- 0 0.0 3.0 0 77
r 0.50008 7 2 ack 40 ------- 2 7.0 4.0 29 76
+ 0.50008 2 1 ack 40 ------- 2 7.0 4.0 29 76
- 0.50008 2 1 ack 40 ------- 2 7.0 4.0 29 76
- 0.500992 1 2 tcp 1040 ------- 2 4.0 7.0 33 52
r 0.501264 1 4 ack 40 ------- 2 7.0 4.0 27 72
+ 0.501264 4 1 tcp 1040 ------- 2 4.0 7.0 47 78
- 0.501264 4 1 tcp 1040 ------- 2 4.0 7.0 47 78
r 0.502336 0 1 cbr 210 ------- 0 0.0 3.0 0 77
+ 0.502336 1 2 cbr 210 ------- 0 0.0 3.0 0 77
r 0.503563 2 7 tcp 1040 ------- 2 4.0 7.0 30 47
+ 0.503563 7 2 ack 40 ------- 2 7.0 4.0 30 79
- 0.503563 7 2 ack 40 ------- 2 7.0 4.0 30 79
+ 0.50375 0 1 cbr 210 ------- 0 0.0 3.0 1 80
- 0.50375 0 1 cbr 210 ------- 0 0.0 3.0 1 80
r 0.504747 2 1 ack 40 ------- 2 7.0 4.0 28 74
+ 0.504747 1 4 ack 40 ------- 2 7.0 4.0 28 74
- 0.504747 1 4 ack 40 ------- 2 7.0 4.0 28 74
r 0.504928 4 1 tcp 1040 ------- 2 4.0 7.0 47 78
+ 0.504928 1 2 tcp 1040 ------- 2 4.0 7.0 47 78
r 0.505445 1 2 tcp 1040 ------- 2 4.0 7.0 31 49
+ 0.505445 2 7 tcp 1040 ------- 2 4.0 7.0 31 49
- 0.505445 2 7 tcp 1040 ------- 2 4.0 7.0 31 49
r 0.505627 7 2 ack 40 ------- 2 7.0 4.0 30 79
+ 0.505627 2 1 ack 40 ------- 2 7.0 4.0 30 79
- 0.505627 2 1 ack 40 ------- 2 7.0 4.0 30 79
r 0.506086 0 1 cbr 210 ------- 0 0.0 3.0 1 80
+ 0.506086 1 2 cbr 210 ------- 0 0.0 3.0 1 80
- 0.506539 1 2 tcp 1040 ------- 2 4.0 7.0 34 53
r 0.506811 1 4 ack 40 ------- 2 7.0 4.0 28 74
+ 0.506811 4 1 tcp 1040 ------- 2 4.0 7.0 48 81
- 0.506811 4 1 tcp 1040 ------- 2 4.0 7.0 48 81
+ 0.5075 0 1 cbr 210 ------- 0 0.0 3.0 2 82
- 0.5075 0 1 cbr 210 ------- 0 0.0 3.0 2 82
r 0.509109 2 7 tcp 1040 ------- 2 4.0 7.0 31 49
+ 0.509109 7 2 ack 40 ------- 2 7.0 4.0 31 83
- 0.509109 7 2 ack 40 ------- 2 7.0 4.0 31 83
r 0.509836 0 1 cbr 210 ------- 0 0.0 3.0 2 82
+ 0.509836 1 2 cbr 210 ------- 0 0.0 3.0 2 82
r 0.510293 2 1 ack 40 ------- 2 7.0 4.0 29 76
+ 0.510293 1 4 ack 40 ------- 2 7.0 4.0 29 76