V -t * -v 1.0a5 -a 0
A -t * -n 1 -p 0 -o 0x7fffffff -c 30 -a 1
A -t * -h 1 -m 1073741823 -s 0
n -t * -a 4 -s 4 -S UP -v circle -c black -i black
n -t * -a 0 -s 0 -S UP -v square -c black -i black
n -t * -a 5 -s 5 -S UP -v circle -c black -i black
n -t * -a 1 -s 1 -S UP -v circle -c black -i black
n -t * -a 2 -s 2 -S UP -v circle -c black -i black
n -t * -a 3 -s 3 -S UP -v circle -c black -i black
l -t * -s 0 -d 1 -S UP -r 1000000 -D 0.01 -c black
l -t * -s 0 -d 2 -S UP -r 1000000 -D 0.01 -c black
l -t * -s 0 -d 3 -S UP -r 1000000 -D 0.01 -c black
l -t * -s 0 -d 4 -S UP -r 1000000 -D 0.01 -c black
l -t * -s 0 -d 5 -S UP -r 1000000 -D 0.01 -c black
+ -t 0 -s 1 -d 0 -p tcp -e 40 -c 1 -i 0 -a 1 -x {1.0 3.0 0 ------- null}
- -t 0 -s 1 -d 0 -p tcp -e 40 -c 1 -i 0 -a 1 -x {1.0 3.0 0 ------- null}
h -t 0 -s 1 -d 0 -p tcp -e 40 -c 1 -i 0 -a 1 -x {1.0 3.0 -1 ------- null}
r -t 0.01032 -s 1 -d 0 -p tcp -e 40 -c 1 -i 0 -a 1 -x {1.0 3.0 0 ------- null}
+ -t 0.01032 -s 0 -d 3 -p tcp -e 40 -c 1 -i 0 -a 1 -x {1.0 3.0 0 ------- null}
- -t 0.01032 -s 0 -d 3 -p tcp -e 40 -c 1 -i 0 -a 1 -x {1.0 3.0 0 ------- null}
h -t 0.01032 -s 0 -d 3 -p tcp -e 40 -c 1 -i 0 -a 1 -x {1.0 3.0 -1 ------- null}
r -t 0.02064 -s 0 -d 3 -p tcp -e 40 -c 1 -i 0 -a 1 -x {1.0 3.0 0 ------- null}
+ -t 0.02064 -s 3 -d 0 -p ack -e 40 -c 1 -i 1 -a 1 -x {3.0 1.0 0 ------- null}
- -t 0.02064 -s 3 -d 0 -p ack -e 40 -c 1 -i 1 -a 1 -x {3.0 1.0 0 ------- null}
h -t 0.02064 -s 3 -d 0 -p ack -e 40 -c 1 -i 1 -a 1 -x {3.0 1.0 -1 ------- null}
r -t 0.03096 -s 3 -d 0 -p ack -e 40 -c 1 -i 1 -a 1 -x {3.0 1.0 0 ------- null}
+ -t 0.03096 -s 0 -d 1 -p ack -e 40 -c 1 -i 1 -a 1 -x {3.0 1.0 0 ------- null}
- -t 0.03096 -s 0 -d 1 -p ack -e 40 -c 1 -i 1 -a 1 -x {3.0 1.0 0 ------- null}
h -t 0.03096 -s 0 -d 1 -p ack -e 40 -c 1 -i 1 -a 1 -x {3.0 1.0 -1 ------- null}
r -t 0.04128 -s 0 -d 1 -p ack -e 40 -c 1 -i 1 -a 1 -x {3.0 1.0 0 ------- null}
+ -t 0.04128 -s 1 -d 0 -p tcp -e 552 -c 1 -i 2 -a 1 -x {1.0 3.0 1 ------- null}
- -t 0.04128 -s 1 -d 0 -p tcp -e 552 -c 1 -i 2 -a 1 -x {1.0 3.0 1 ------- null}
h -t 0.04128 -s 1 -d 0 -p tcp -e 552 -c 1 -i 2 -a 1 -x {1.0 3.0 -1 ------- null}
+ -t 0.04128 -s 1 -d 0 -p tcp -e 552 -c 1 -i 3 -a 1 -x {1.0 3.0 2 ------- null}
- -t 0.045696 -s 1 -d 0 -p tcp -e 552 -c 1 -i 3 -a 1 -x {1.0 3.0 2 ------- null}
h -t 0.045696 -s 1 -d 0 -p tcp -e 552 -c 1 -i 3 -a 1 -x {1.0 3.0 -1 ------- null}
r -t 0.055696 -s 1 -d 0 -p tcp -e 552 -c 1 -i 2 -a 1 -x {1.0 3.0 1 ------- null}
+ -t 0.055696 -s 0 -d 3 -p tcp -e 552 -c 1 -i 2 -a 1 -x {1.0 3.0 1 ------- null}
- -t 0.055696 -s 0 -d 3 -p tcp -e 552 -c 1 -i 2 -a 1 -x {1.0 3.0 1 ------- null}
h -t 0.055696 -s 0 -d 3 -p tcp -e 552 -c 1 -i 2 -a 1 -x {1.0 3.0 -1 ------- null}
r -t 0.060112 -s 1 -d 0 -p tcp -e 552 -c 1 -i 3 -a 1 -x {1.0 3.0 2 ------- null}
+ -t 0.060112 -s 0 -d 3 -p tcp -e 552 -c 1 -i 3 -a 1 -x {1.0 3.0 2 ------- null}
- -t 0.060112 -s 0 -d 3 -p tcp -e 552 -c 1 -i 3 -a 1 -x {1.0 3.0 2 ------- null}
h -t 0.060112 -s 0 -d 3 -p tcp -e 552 -c 1 -i 3 -a 1 -x {1.0 3.0 -1 ------- null}
r -t 0.070112 -s 0 -d 3 -p tcp -e 552 -c 1 -i 2 -a 1 -x {1.0 3.0 1 ------- null}
r -t 0.074528 -s 0 -d 3 -p tcp -e 552 -c 1 -i 3 -a 1 -x {1.0 3.0 2 ------- null}
+ -t 0.074528 -s 3 -d 0 -p ack -e 40 -c 1 -i 4 -a 1 -x {3.0 1.0 2 ------- null}
- -t 0.074528 -s 3 -d 0 -p ack -e 40 -c 1 -i 4 -a 1 -x {3.0 1.0 2 ------- null}
h -t 0.074528 -s 3 -d 0 -p ack -e 40 -c 1 -i 4 -a 1 -x {3.0 1.0 -1 ------- null}
r -t 0.084848 -s 3 -d 0 -p ack -e 40 -c 1 -i 4 -a 1 -x {3.0 1.0 2 ------- null}
+ -t 0.084848 -s 0 -d 1 -p ack -e 40 -c 1 -i 4 -a 1 -x {3.0 1.0 2 ------- null}
- -t 0.084848 -s 0 -d 1 -p ack -e 40 -c 1 -i 4 -a 1 -x {3.0 1.0 2 ------- null}
h -t 0.084848 -s 0 -d 1 -p ack -e 40 -c 1 -i 4 -a 1 -x {3.0 1.0 -1 ------- null}
r -t 0.095168 -s 0 -d 1 -p ack -e 40 -c 1 -i 4 -a 1 -x {3.0 1.0 2 ------- null}
+ -t 0.095168 -s 1 -d 0 -p tcp -e 552 -c 1 -i 5 -a 1 -x {1.0 3.0 3 ------- null}
- -t 0.095168 -s 1 -d 0 -p tcp -e 552 -c 1 -i 5 -a 1 -x {1.0 3.0 3 ------- null}
h -t 0.095168 -s 1 -d 0 -p tcp -e 552 -c 1 -i 5 -a 1 -x {1.0 3.0 -1 ------- null}
+ -t 0.095168 -s 1 -d 0 -p tcp -e 552 -c 1 -i 6 -a 1 -x {1.0 3.0 4 ------- null}
+ -t 0.095168 -s 1 -d 0 -p tcp -e 552 -c 1 -i 7 -a 1 -x {1.0 3.0 5 ------- null}
- -t 0.099584 -s 1 -d 0 -p tcp -e 552 -c 1 -i 6 -a 1 -x {1.0 3.0 4 ------- null}
h -t 0.099584 -s 1 -d 0 -p tcp -e 552 -c 1 -i 6 -a 1 -x {1.0 3.0 -1 ------- null}
- -t 0.104 -s 1 -d 0 -p tcp -e 552 -c 1 -i 7 -a 1 -x {1.0 3.0 5 ------- null}
h -t 0.104 -s 1 -d 0 -p tcp -e 552 -c 1 -i 7 -a 1 -x {1.0 3.0 -1 ------- null}
r -t 0.109584 -s 1 -d 0 -p tcp -e 552 -c 1 -i 5 -a 1 -x {1.0 3.0 3 ------- null}
+ -t 0.109584 -s 0 -d 3 -p tcp -e 552 -c 1 -i 5 -a 1 -x {1.0 3.0 3 ------- null}
- -t 0.109584 -s 0 -d 3 -p tcp -e 552 -c 1 -i 5 -a 1 -x {1.0 3.0 3 ------- null}
h -t 0.109584 -s 0 -d 3 -p tcp -e 552 -c 1 -i 5 -a 1 -x {1.0 3.0 -1 ------- null}
r -t 0.114 -s 1 -d 0 -p tcp -e 552 -c 1 -i 6 -a 1 -x {1.0 3.0 4 ------- null}
+ -t 0.114 -s 0 -d 3 -p tcp -e 552 -c 1 -i 6 -a 1 -x {1.0 3.0 4 ------- null}
- -t 0.114 -s 0 -d 3 -p tcp -e 552 -c 1 -i 6 -a 1 -x {1.0 3.0 4 ------- null}
h -t 0.114 -s 0 -d 3 -p tcp -e 552 -c 1 -i 6 -a 1 -x {1.0 3.0 -1 ------- null}
r -t 0.118416 -s 1 -d 0 -p tcp -e 552 -c 1 -i 7 -a 1 -x {1.0 3.0 5 ------- null}
+ -t 0.118416 -s 0 -d 3 -p tcp -e 552 -c 1 -i 7 -a 1 -x {1.0 3.0 5 ------- null}
- -t 0.118416 -s 0 -d 3 -p tcp -e 552 -c 1 -i 7 -a 1 -x {1.0 3.0 5 ------- null}
h -t 0.118416 -s 0 -d 3 -p tcp -e 552 -c 1 -i 7 -a 1 -x {1.0 3.0 -1 ------- null}
r -t 0.124 -s 0 -d 3 -p tcp -e 552 -c 1 -i 5 -a 1 -x {1.0 3.0 3 ------- null}
r -t 0.128416 -s 0 -d 3 -p tcp -e 552 -c 1 -i 6 -a 1 -x {1.0 3.0 4 ------- null}
+ -t 0.128416 -s 3 -d 0 -p ack -e 40 -c 1 -i 8 -a 1 -x {3.0 1.0 4 ------- null}
- -t 0.128416 -s 3 -d 0 -p ack -e 40 -c 1 -i 8 -a 1 -x {3.0 1.0 4 ------- null}
h -t 0.128416 -s 3 -d 0 -p ack -e 40 -c 1 -i 8 -a 1 -x {3.0 1.0 -1 ------- null}
r -t 0.132832 -s 0 -d 3 -p tcp -e 552 -c 1 -i 7 -a 1 -x {1.0 3.0 5 ------- null}
r -t 0.138736 -s 3 -d 0 -p ack -e 40 -c 1 -i 8 -a 1 -x {3.0 1.0 4 ------- null}
+ -t 0.138736 -s 0 -d 1 -p ack -e 40 -c 1 -i 8 -a 1 -x {3.0 1.0 4 ------- null}
- -t 0.138736 -s 0 -d 1 -p ack -e 40 -c 1 -i 8 -a 1 -x {3.0 1.0 4 ------- null}
h -t 0.138736 -s 0 -d 1 -p ack -e 40 -c 1 -i 8 -a 1 -x {3.0 1.0 -1 ------- null}
r -t 0.149056 -s 0 -d 1 -p ack -e 40 -c 1 -i 8 -a 1 -x {3.0 1.0 4 ------- null}
+ -t 0.149056 -s 1 -d 0 -p tcp -e 552 -c 1 -i 9 -a 1 -x {1.0 3.0 6 ------- null}
- -t 0.149056 -s 1 -d 0 -p tcp -e 552 -c 1 -i 9 -a 1 -x {1.0 3.0 6 ------- null}
h -t 0.149056 -s 1 -d 0 -p tcp -e 552 -c 1 -i 9 -a 1 -x {1.0 3.0 -1 ------- null}
+ -t 0.149056 -s 1 -d 0 -p tcp -e 552 -c 1 -i 10 -a 1 -x {1.0 3.0 7 ------- null}
+ -t 0.149056 -s 1 -d 0 -p tcp -e 552 -c 1 -i 11 -a 1 -x {1.0 3.0 8 ------- null}
- -t 0.153472 -s 1 -d 0 -p tcp -e 552 -c 1 -i 10 -a 1 -x {1.0 3.0 7 ------- null}
h -t 0.153472 -s 1 -d 0 -p tcp -e 552 -c 1 -i 10 -a 1 -x {1.0 3.0 -1 ------- null}
- -t 0.157888 -s 1 -d 0 -p tcp -e 552 -c 1 -i 11 -a 1 -x {1.0 3.0 8 ------- null}
h -t 0.157888 -s 1 -d 0 -p tcp -e 552 -c 1 -i 11 -a 1 -x {1.0 3.0 -1 ------- null}
r -t 0.163472 -s 1 -d 0 -p tcp -e 552 -c 1 -i 9 -a 1 -x {1.0 3.0 6 ------- null}
+ -t 0.163472 -s 0 -d 3 -p tcp -e 552 -c 1 -i 9 -a 1 -x {1.0 3.0 6 ------- null}
- -t 0.163472 -s 0 -d 3 -p tcp -e 552 -c 1 -i 9 -a 1 -x {1.0 3.0 6 ------- null}
h -t 0.163472 -s 0 -d 3 -p tcp -e 552 -c 1 -i 9 -a 1 -x {1.0 3.0 -1 ------- null}
r -t 0.167888 -s 1 -d 0 -p tcp -e 552 -c 1 -i 10 -a 1 -x {1.0 3.0 7 ------- null}
+ -t 0.167888 -s 0 -d 3 -p tcp -e 552 -c 1 -i 10 -a 1 -x {1.0 3.0 7 ------- null}
- -t 0.167888 -s 0 -d 3 -p tcp -e 552 -c 1 -i 10 -a 1 -x {1.0 3.0 7 ------- null}
h -t 0.167888 -s 0 -d 3 -p tcp -e 552 -c 1 -i 10 -a 1 -x {1.0 3.0 -1 ------- null}
r -t 0.172304 -s 1 -d 0 -p tcp -e 552 -c 1 -i 11 -a 1 -x {1.0 3.0 8 ------- null}
+ -t 0.172304 -s 0 -d 3 -p tcp -e 552 -c 1 -i 11 -a 1 -x {1.0 3.0 8 ------- null}
- -t 0.172304 -s 0 -d 3 -p tcp -e 552 -c 1 -i 11 -a 1 -x {1.0 3.0 8 ------- null}
h -t 0.172304 -s 0 -d 3 -p tcp -e 552 -c 1 -i 11 -a 1 -x {1.0 3.0 -1 ------- null}
r -t 0.177888 -s 0 -d 3 -p tcp -e 552 -c 1 -i 9 -a 1 -x {1.0 3.0 6 ------- null}
+ -t 0.177888 -s 3 -d 0 -p ack -e 40 -c 1 -i 12 -a 1 -x {3.0 1.0 6 ------- null}
- -t 0.177888 -s 3 -d 0 -p ack -e 40 -c 1 -i 12 -a 1 -x {3.0 1.0 6 ------- null}
h -t 0.177888 -s 3 -d 0 -p ack -e 40 -c 1 -i 12 -a 1 -x {3.0 1.0 -1 ------- null}
r -t 0.182304 -s 0 -d 3 -p tcp -e 552 -c 1 -i 10 -a 1 -x {1.0 3.0 7 ------- null}
r -t 0.18672 -s 0 -d 3 -p tcp -e 552 -c 1 -i 11 -a 1 -x {1.0 3.0 8 ------- null}
+ -t 0.18672 -s 3 -d 0 -p ack -e 40 -c 1 -i 13 -a 1 -x {3.0 1.0 8 ------- null}
- -t 0.18672 -s 3 -d 0 -p ack -e 40 -c 1 -i 13 -a 1 -x {3.0 1.0 8 ------- null}
h -t 0.18672 -s 3 -d 0 -p ack -e 40 -c 1 -i 13 -a 1 -x {3.0 1.0 -1 ------- null}
r -t 0.188208 -s 3 -d 0 -p ack -e 40 -c 1 -i 12 -a 1 -x {3.0 1.0 6 ------- null}
+ -t 0.188208 -s 0 -d 1 -p ack -e 40 -c 1 -i 12 -a 1 -x {3.0 1.0 6 ------- null}
- -t 0.188208 -s 0 -d 1 -p ack -e 40 -c 1 -i 12 -a 1 -x {3.0 1.0 6 ------- null}
h -t 0.188208 -s 0 -d 1 -p ack -e 40 -c 1 -i 12 -a 1 -x {3.0 1.0 -1 ------- null}
r -t 0.19704 -s 3 -d 0 -p ack -e 40 -c 1 -i 13 -a 1 -x {3.0 1.0 8 ------- null}
+ -t 0.19704 -s 0 -d 1 -p ack -e 40 -c 1 -i 13 -a 1 -x {3.0 1.0 8 ------- null}
- -t 0.19704 -s 0 -d 1 -p ack -e 40 -c 1 -i 13 -a 1 -x {3.0 1.0 8 ------- null}
h -t 0.19704 -s 0 -d 1 -p ack -e 40 -c 1 -i 13 -a 1 -x {3.0 1.0 -1 ------- null}
r -t 0.198528 -s 0 -d 1 -p ack -e 40 -c 1 -i 12 -a 1 -x {3.0 1.0 6 ------- null}
+ -t 0.198528 -s 1 -d 0 -p tcp -e 552 -c 1 -i 14 -a 1 -x {1.0 3.0 9 ------- null}
- -t 0.198528 -s 1 -d 0 -p tcp -e 552 -c 1 -i 14 -a 1 -x {1.0 3.0 9 ------- null}
h -t 0.198528 -s 1 -d 0 -p tcp -e 552 -c 1 -i 14 -a 1 -x {1.0 3.0 -1 ------- null}
+ -t 0.198528 -s 1 -d 0 -p tcp -e 552 -c 1 -i 15 -a 1 -x {1.0 3.0 10 ------- null}
+ -t 0.198528 -s 1 -d 0 -p tcp -e 552 -c 1 -i 16 -a 1 -x {1.0 3.0 11 ------- null}
- -t 0.202944 -s 1 -d 0 -p tcp -e 552 -c 1 -i 15 -a 1 -x {1.0 3.0 10 ------- null}
h -t 0.202944 -s 1 -d 0 -p tcp -e 552 -c 1 -i 15 -a 1 -x {1.0 3.0 -1 ------- null}
r -t 0.20736 -s 0 -d 1 -p ack -e 40 -c 1 -i 13 -a 1 -x {3.0 1.0 8 ------- null}
+ -t 0.20736 -s 1 -d 0 -p tcp -e 552 -c 1 -i 17 -a 1 -x {1.0 3.0 12 ------- null}
+ -t 0.20736 -s 1 -d 0 -p tcp -e 552 -c 1 -i 18 -a 1 -x {1.0 3.0 13 ------- null}
+ -t 0.20736 -s 1 -d 0 -p tcp -e 552 -c 1 -i 19 -a 1 -x {1.0 3.0 14 ------- null}
- -t 0.20736 -s 1 -d 0 -p tcp -e 552 -c 1 -i 16 -a 1 -x {1.0 3.0 11 ------- null}
h -t 0.20736 -s 1 -d 0 -p tcp -e 552 -c 1 -i 16 -a 1 -x {1.0 3.0 -1 ------- null}
- -t 0.211776 -s 1 -d 0 -p tcp -e 552 -c 1 -i 17 -a 1 -x {1.0 3.0 12 ------- null}
h -t 0.211776 -s 1 -d 0 -p tcp -e 552 -c 1 -i 17 -a 1 -x {1.0 3.0 -1 ------- null}
r -t 0.212944 -s 1 -d 0 -p tcp -e 552 -c 1 -i 14 -a 1 -x {1.0 3.0 9 ------- null}
+ -t 0.212944 -s 0 -d 3 -p tcp -e 552 -c 1 -i 14 -a 1 -x {1.0 3.0 9 ------- null}
- -t 0.212944 -s 0 -d 3 -p tcp -e 552 -c 1 -i 14 -a 1 -x {1.0 3.0 9 ------- null}
h -t 0.212944 -s 0 -d 3 -p tcp -e 552 -c 1 -i 14 -a 1 -x {1.0 3.0 -1 ------- null}
- -t 0.216192 -s 1 -d 0 -p tcp -e 552 -c 1 -i 18 -a 1 -x {1.0 3.0 13 ------- null}
h -t 0.216192 -s 1 -d 0 -p tcp -e 552 -c 1 -i 18 -a 1 -x {1.0 3.0 -1 ------- null}
r -t 0.21736 -s 1 -d 0 -p tcp -e 552 -c 1 -i 15 -a 1 -x {1.0 3.0 10 ------- null}
+ -t 0.21736 -s 0 -d 3 -p tcp -e 552 -c 1 -i 15 -a 1 -x {1.0 3.0 10 ------- null}
- -t 0.21736 -s 0 -d 3 -p tcp -e 552 -c 1 -i 15 -a 1 -x {1.0 3.0 10 ------- null}
h -t 0.21736 -s 0 -d 3 -p tcp -e 552 -c 1 -i 15 -a 1 -x {1.0 3.0 -1 ------- null}
- -t 0.220608 -s 1 -d 0 -p tcp -e 552 -c 1 -i 19 -a 1 -x {1.0 3.0 14 ------- null}
h -t 0.220608 -s 1 -d 0 -p tcp -e 552 -c 1 -i 19 -a 1 -x {1.0 3.0 -1 ------- null}
r -t 0.221776 -s 1 -d 0 -p tcp -e 552 -c 1 -i 16 -a 1 -x {1.0 3.0 11 ------- null}
+ -t 0.221776 -s 0 -d 3 -p tcp -e 552 -c 1 -i 16 -a 1 -x {1.0 3.0 11 ------- null}
- -t 0.221776 -s 0 -d 3 -p tcp -e 552 -c 1 -i 16 -a 1 -x {1.0 3.0 11 ------- null}
h -t 0.221776 -s 0 -d 3 -p tcp -e 552 -c 1 -i 16 -a 1 -x {1.0 3.0 -1 ------- null}
r -t 0.226192 -s 1 -d 0 -p tcp -e 552 -c 1 -i 17 -a 1 -x {1.0 3.0 12 ------- null}
+ -t 0.226192 -s 0 -d 3 -p tcp -e 552 -c 1 -i 17 -a 1 -x {1.0 3.0 12 ------- null}
- -t 0.226192 -s 0 -d 3 -p tcp -e 552 -c 1 -i 17 -a 1 -x {1.0 3.0 12 ------- null}
h -t 0.226192 -s 0 -d 3 -p tcp -e 552 -c 1 -i 17 -a 1 -x {1.0 3.0 -1 ------- null}
r -t 0.22736 -s 0 -d 3 -p tcp -e 552 -c 1 -i 14 -a 1 -x {1.0 3.0 9 ------- null}
r -t 0.230608 -s 1 -d 0 -p tcp -e 552 -c 1 -i 18 -a 1 -x {1.0 3.0 13 ------- null}
+ -t 0.230608 -s 0 -d 3 -p tcp -e 552 -c 1 -i 18 -a 1 -x {1.0 3.0 13 ------- null}
- -t 0.230608 -s 0 -d 3 -p tcp -e 552 -c 1 -i 18 -a 1 -x {1.0 3.0 13 ------- null}
h -t 0.230608 -s 0 -d 3 -p tcp -e 552 -c 1 -i 18 -a 1 -x {1.0 3.0 -1 ------- null}
r -t 0.231776 -s 0 -d 3 -p tcp -e 552 -c 1 -i 15 -a 1 -x {1.0 3.0 10 ------- null}
+ -t 0.231776 -s 3 -d 0 -p ack -e 40 -c 1 -i 20 -a 1 -x {3.0 1.0 10 ------- null}
- -t 0.231776 -s 3 -d 0 -p ack -e 40 -c 1 -i 20 -a 1 -x {3.0 1.0 10 ------- null}
h -t 0.231776 -s 3 -d 0 -p ack -e 40 -c 1 -i 20 -a 1 -x {3.0 1.0 -1 ------- null}
r -t 0.235024 -s 1 -d 0 -p tcp -e 552 -c 1 -i 19 -a 1 -x {1.0 3.0 14 ------- null}
+ -t 0.235024 -s 0 -d 3 -p tcp -e 552 -c 1 -i 19 -a 1 -x {1.0 3.0 14 ------- null}
- -t 0.235024 -s 0 -d 3 -p tcp -e 552 -c 1 -i 19 -a 1 -x {1.0 3.0 14 ------- null}
h -t 0.235024 -s 0 -d 3 -p tcp -e 552 -c 1 -i 19 -a 1 -x {1.0 3.0 -1 ------- null}
r -t 0.236192 -s 0 -d 3 -p tcp -e 552 -c 1 -i 16 -a 1 -x {1.0 3.0 11 ------- null}
r -t 0.240608 -s 0 -d 3 -p tcp -e 552 -c 1 -i 17 -a 1 -x {1.0 3.0 12 ------- null}
+ -t 0.240608 -s 3 -d 0 -p ack -e 40 -c 1 -i 21 -a 1 -x {3.0 1.0 12 ------- null}
- -t 0.240608 -s 3 -d 0 -p ack -e 40 -c 1 -i 21 -a 1 -x {3.0 1.0 12 ------- null}
h -t 0.240608 -s 3 -d 0 -p ack -e 40 -c 1 -i 21 -a 1 -x {3.0 1.0 -1 ------- null}
r -t 0.242096 -s 3 -d 0 -p ack -e 40 -c 1 -i 20 -a 1 -x {3.0 1.0 10 ------- null}
+ -t 0.242096 -s 0 -d 1 -p ack -e 40 -c 1 -i 20 -a 1 -x {3.0 1.0 10 ------- null}
- -t 0.242096 -s 0 -d 1 -p ack -e 40 -c 1 -i 20 -a 1 -x {3.0 1.0 10 ------- null}
h -t 0.242096 -s 0 -d 1 -p ack -e 40 -c 1 -i 20 -a 1 -x {3.0 1.0 -1 ------- null}
r -t 0.245024 -s 0 -d 3 -p tcp -e 552 -c 1 -i 18 -a 1 -x {1.0 3.0 13 ------- null}
r -t 0.24944 -s 0 -d 3 -p tcp -e 552 -c 1 -i 19 -a 1 -x {1.0 3.0 14 ------- null}
+ -t 0.24944 -s 3 -d 0 -p ack -e 40 -c 1 -i 22 -a 1 -x {3.0 1.0 14 ------- null}
- -t 0.24944 -s 3 -d 0 -p ack -e 40 -c 1 -i 22 -a 1 -x {3.0 1.0 14 ------- null}
h -t 0.24944 -s 3 -d 0 -p ack -e 40 -c 1 -i 22 -a 1 -x {3.0 1.0 -1 ------- null}
r -t 0.250928 -s 3 -d 0 -p ack -e 40 -c 1 -i 21 -a 1 -x {3.0 1.0 12 ------- null}
+ -t 0.250928 -s 0 -d 1 -p ack -e 40 -c 1 -i 21 -a 1 -x {3.0 1.0 12 ------- null}
- -t 0.250928 -s 0 -d 1 -p ack -e 40 -c 1 -i 21 -a 1 -x {3.0 1.0 12 ------- null}
h -t 0.250928 -s 0 -d 1 -p ack -e 40 -c 1 -i 21 -a 1 -x {3.0 1.0 -1 ------- null}
r -t 0.252416 -s 0 -d 1 -p ack -e 40 -c 1 -i 20 -a 1 -x {3.0 1.0 10 ------- null}
+ -t 0.252416 -s 1 -d 0 -p tcp -e 552 -c 1 -i 23 -a 1 -x {1.0 3.0 15 ------- null}
- -t 0.252416 -s 1 -d 0 -p tcp -e 552 -c 1 -i 23 -a 1 -x {1.0 3.0 15 ------- null}
h -t 0.252416 -s 1 -d 0 -p tcp -e 552 -c 1 -i 23 -a 1 -x {1.0 3.0 -1 ------- null}
+ -t 0.252416 -s 1 -d 0 -p tcp -e 552 -c 1 -i 24 -a 1 -x {1.0 3.0 16 ------- null}
+ -t 0.252416 -s 1 -d 0 -p tcp -e 552 -c 1 -i 25 -a 1 -x {1.0 3.0 17 ------- null}
- -t 0.256832 -s 1 -d 0 -p tcp -e 552 -c 1 -i 24 -a 1 -x {1.0 3.0 16 ------- null}
h -t 0.256832 -s 1 -d 0 -p tcp -e 552 -c 1 -i 24 -a 1 -x {1.0 3.0 -1 ------- null}
r -t 0.25976 -s 3 -d 0 -p ack -e 40 -c 1 -i 22 -a 1 -x {3.0 1.0 14 ------- null}
+ -t 0.25976 -s 0 -d 1 -p ack -e 40 -c 1 -i 22 -a 1 -x {3.0 1.0 14 ------- null}
- -t 0.25976 -s 0 -d 1 -p ack -e 40 -c 1 -i 22 -a 1 -x {3.0 1.0 14 ------- null}
h -t 0.25976 -s 0 -d 1 -p ack -e 40 -c 1 -i 22 -a 1 -x {3.0 1.0 -1 ------- null}
- -t 0.261248 -s 1 -d 0 -p tcp -e 552 -c 1 -i 25 -a 1 -x {1.0 3.0 17 ------- null}
h -t 0.261248 -s 1 -d 0 -p tcp -e 552 -c 1 -i 25 -a 1 -x {1.0 3.0 -1 ------- null}
r -t 0.261248 -s 0 -d 1 -p ack -e 40 -c 1 -i 21 -a 1 -x {3.0 1.0 12 ------- null}
+ -t 0.261248 -s 1 -d 0 -p tcp -e 552 -c 1 -i 26 -a 1 -x {1.0 3.0 18 ------- null}
+ -t 0.261248 -s 1 -d 0 -p tcp -e 552 -c 1 -i 27 -a 1 -x {1.0 3.0 19 ------- null}
+ -t 0.261248 -s 1 -d 0 -p tcp -e 552 -c 1 -i 28 -a 1 -x {1.0 3.0 20 ------- null}
- -t 0.265664 -s 1 -d 0 -p tcp -e 552 -c 1 -i 26 -a 1 -x {1.0 3.0 18 ------- null}
h -t 0.265664 -s 1 -d 0 -p tcp -e 552 -c 1 -i 26 -a 1 -x {1.0 3.0 -1 ------- null}
r -t 0.266832 -s 1 -d 0 -p tcp -e 552 -c 1 -i 23 -a 1 -x {1.0 3.0 15 ------- null}
+ -t 0.266832 -s 0 -d 3 -p tcp -e 552 -c 1 -i 23 -a 1 -x {1.0 3.0 15 ------- null}
- -t 0.266832 -s 0 -d 3 -p tcp -e 552 -c 1 -i 23 -a 1 -x {1.0 3.0 15 ------- null}
h -t 0.266832 -s 0 -d 3 -p tcp -e 552 -c 1 -i 23 -a 1 -x {1.0 3.0 -1 ------- null}
- -t 0.27008 -s 1 -d 0 -p tcp -e 552 -c 1 -i 27 -a 1 -x {1.0 3.0 19 ------- null}
h -t 0.27008 -s 1 -d 0 -p tcp -e 552 -c 1 -i 27 -a 1 -x {1.0 3.0 -1 ------- null}
r -t 0.27008 -s 0 -d 1 -p ack -e 40 -c 1 -i 22 -a 1 -x {3.0 1.0 14 ------- null}
+ -t 0.27008 -s 1 -d 0 -p tcp -e 552 -c 1 -i 29 -a 1 -x {1.0 3.0 21 ------- null}
+ -t 0.27008 -s 1 -d 0 -p tcp -e 552 -c 1 -i 30 -a 1 -x {1.0 3.0 22 ------- null}
+ -t 0.27008 -s 1 -d 0 -p tcp -e 552 -c 1 -i 31 -a 1 -x {1.0 3.0 23 ------- null}
r -t 0.271248 -s 1 -d 0 -p tcp -e 552 -c 1 -i 24 -a 1 -x {1.0 3.0 16 ------- null}
+ -t 0.271248 -s 0 -d 3 -p tcp -e 552 -c 1 -i 24 -a 1 -x {1.0 3.0 16 ------- null}
- -t 0.271248 -s 0 -d 3 -p tcp -e 552 -c 1 -i 24 -a 1 -x {1.0 3.0 16 ------- null}
h -t 0.271248 -s 0 -d 3 -p tcp -e 552 -c 1 -i 24 -a 1 -x {1.0 3.0 -1 ------- null}
- -t 0.274496 -s 1 -d 0 -p tcp -e 552 -c 1 -i 28 -a 1 -x {1.0 3.0 20 ------- null}
h -t 0.274496 -s 1 -d 0 -p tcp -e 552 -c 1 -i 28 -a 1 -x {1.0 3.0 -1 ------- null}
r -t 0.275664 -s 1 -d 0 -p tcp -e 552 -c 1 -i 25 -a 1 -x {1.0 3.0 17 ------- null}
+ -t 0.275664 -s 0 -d 3 -p tcp -e 552 -c 1 -i 25 -a 1 -x {1.0 3.0 17 ------- null}
- -t 0.275664 -s 0 -d 3 -p tcp -e 552 -c 1 -i 25 -a 1 -x {1.0 3.0 17 ------- null}
h -t 0.275664 -s 0 -d 3 -p tcp -e 552 -c 1 -i 25 -a 1 -x {1.0 3.0 -1 ------- null}
- -t 0.278912 -s 1 -d 0 -p tcp -e 552 -c 1 -i 29 -a 1 -x {1.0 3.0 21 ------- null}
h -t 0.278912 -s 1 -d 0 -p tcp -e 552 -c 1 -i 29 -a 1 -x {1.0 3.0 -1 ------- null}
r -t 0.28008 -s 1 -d 0 -p tcp -e 552 -c 1 -i 26 -a 1 -x {1.0 3.0 18 ------- null}
+ -t 0.28008 -s 0 -d 3 -p tcp -e 552 -c 1 -i 26 -a 1 -x {1.0 3.0 18 ------- null}
- -t 0.28008 -s 0 -d 3 -p tcp -e 552 -c 1 -i 26 -a 1 -x {1.0 3.0 18 ------- null}
h -t 0.28008 -s 0 -d 3 -p tcp -e 552 -c 1 -i 26 -a 1 -x {1.0 3.0 -1 ------- null}
r -t 0.281248 -s 0 -d 3 -p tcp -e 552 -c 1 -i 23 -a 1 -x {1.0 3.0 15 ------- null}
- -t 0.283328 -s 1 -d 0 -p tcp -e 552 -c 1 -i 30 -a 1 -x {1.0 3.0 22 ------- null}
h -t 0.283328 -s 1 -d 0 -p tcp -e 552 -c 1 -i 30 -a 1 -x {1.0 3.0 -1 ------- null}
r -t 0.284496 -s 1 -d 0 -p tcp -e 552 -c 1 -i 27 -a 1 -x {1.0 3.0 19 ------- null}
+ -t 0.284496 -s 0 -d 3 -p tcp -e 552 -c 1 -i 27 -a 1 -x {1.0 3.0 19 ------- null}
- -t 0.284496 -s 0 -d 3 -p tcp -e 552 -c 1 -i 27 -a 1 -x {1.0 3.0 19 ------- null}
h -t 0.284496 -s 0 -d 3 -p tcp -e 552 -c 1 -i 27 -a 1 -x {1.0 3.0 -1 ------- null}
r -t 0.285664 -s 0 -d 3 -p tcp -e 552 -c 1 -i 24 -a 1 -x {1.0 3.0 16 ------- null}
+ -t 0.285664 -s 3 -d 0 -p ack -e 40 -c 1 -i 32 -a 1 -x {3.0 1.0 16 ------- null}
- -t 0.285664 -s 3 -d 0 -p ack -e 40 -c 1 -i 32 -a 1 -x {3.0 1.0 16 ------- null}
h -t 0.285664 -s 3 -d 0 -p ack -e 40 -c 1 -i 32 -a 1 -x {3.0 1.0 -1 ------- null}
- -t 0.287744 -s 1 -d 0 -p tcp -e 552 -c 1 -i 31 -a 1 -x {1.0 3.0 23 ------- null}
h -t 0.287744 -s 1 -d 0 -p tcp -e 552 -c 1 -i 31 -a 1 -x {1.0 3.0 -1 ------- null}
r -t 0.288912 -s 1 -d 0 -p tcp -e 552 -c 1 -i 28 -a 1 -x {1.0 3.0 20 ------- null}
+ -t 0.288912 -s 0 -d 3 -p tcp -e 552 -c 1 -i 28 -a 1 -x {1.0 3.0 20 ------- null}
- -t 0.288912 -s 0 -d 3 -p tcp -e 552 -c 1 -i 28 -a 1 -x {1.0 3.0 20 ------- null}
h -t 0.288912 -s 0 -d 3 -p tcp -e 552 -c 1 -i 28 -a 1 -x {1.0 3.0 -1 ------- null}
r -t 0.29008 -s 0 -d 3 -p tcp -e 552 -c 1 -i 25 -a 1 -x {1.0 3.0 17 ------- null}
r -t 0.293328 -s 1 -d 0 -p tcp -e 552 -c 1 -i 29 -a 1 -x {1.0 3.0 21 ------- null}
+ -t 0.293328 -s 0 -d 3 -p tcp -e 552 -c 1 -i 29 -a 1 -x {1.0 3.0 21 ------- null}
- -t 0.293328 -s 0 -d 3 -p tcp -e 552 -c 1 -i 29 -a 1 -x {1.0 3.0 21 ------- null}
h -t 0.293328 -s 0 -d 3 -p tcp -e 552 -c 1 -i 29 -a 1 -x {1.0 3.0 -1 ------- null}
r -t 0.294496 -s 0 -d 3 -p tcp -e 552 -c 1 -i 26 -a 1 -x {1.0 3.0 18 ------- null}
+ -t 0.294496 -s 3 -d 0 -p ack -e 40 -c 1 -i 33 -a 1 -x {3.0 1.0 18 ------- null}
- -t 0.294496 -s 3 -d 0 -p ack -e 40 -c 1 -i 33 -a 1 -x {3.0 1.0 18 ------- null}
h -t 0.294496 -s 3 -d 0 -p ack -e 40 -c 1 -i 33 -a 1 -x {3.0 1.0 -1 ------- null}
r -t 0.295984 -s 3 -d 0 -p ack -e 40 -c 1 -i 32 -a 1 -x {3.0 1.0 16 ------- null}
+ -t 0.295984 -s 0 -d 1 -p ack -e 40 -c 1 -i 32 -a 1 -x {3.0 1.0 16 ------- null}
- -t 0.295984 -s 0 -d 1 -p ack -e 40 -c 1 -i 32 -a 1 -x {3.0 1.0 16 ------- null}
h -t 0.295984 -s 0 -d 1 -p ack -e 40 -c 1 -i 32 -a 1 -x {3.0 1.0 -1 ------- null}
r -t 0.297744 -s 1 -d 0 -p tcp -e 552 -c 1 -i 30 -a 1 -x {1.0 3.0 22 ------- null}
+ -t 0.297744 -s 0 -d 3 -p tcp -e 552 -c 1 -i 30 -a 1 -x {1.0 3.0 22 ------- null}
- -t 0.297744 -s 0 -d 3 -p tcp -e 552 -c 1 -i 30 -a 1 -x {1.0 3.0 22 ------- null}
h -t 0.297744 -s 0 -d 3 -p tcp -e 552 -c 1 -i 30 -a 1 -x {1.0 3.0 -1 ------- null}
r -t 0.298912 -s 0 -d 3 -p tcp -e 552 -c 1 -i 27 -a 1 -x {1.0 3.0 19 ------- null}
r -t 0.30216 -s 1 -d 0 -p tcp -e 552 -c 1 -i 31 -a 1 -x {1.0 3.0 23 ------- null}
+ -t 0.30216 -s 0 -d 3 -p tcp -e 552 -c 1 -i 31 -a 1 -x {1.0 3.0 23 ------- null}
- -t 0.30216 -s 0 -d 3 -p tcp -e 552 -c 1 -i 31 -a 1 -x {1.0 3.0 23 ------- null}
h -t 0.30216 -s 0 -d 3 -p tcp -e 552 -c 1 -i 31 -a 1 -x {1.0 3.0 -1 ------- null}
r -t 0.303328 -s 0 -d 3 -p tcp -e 552 -c 1 -i 28 -a 1 -x {1.0 3.0 20 ------- null}
+ -t 0.303328 -s 3 -d 0 -p ack -e 40 -c 1 -i 34 -a 1 -x {3.0 1.0 20 ------- null}
- -t 0.303328 -s 3 -d 0 -p ack -e 40 -c 1 -i 34 -a 1 -x {3.0 1.0 20 ------- null}
h -t 0.303328 -s 3 -d 0 -p ack -e 40 -c 1 -i 34 -a 1 -x {3.0 1.0 -1 ------- null}
r -t 0.304816 -s 3 -d 0 -p ack -e 40 -c 1 -i 33 -a 1 -x {3.0 1.0 18 ------- null}
+ -t 0.304816 -s 0 -d 1 -p ack -e 40 -c 1 -i 33 -a 1 -x {3.0 1.0 18 ------- null}
- -t 0.304816 -s 0 -d 1 -p ack -e 40 -c 1 -i 33 -a 1 -x {3.0 1.0 18 ------- null}
h -t 0.304816 -s 0 -d 1 -p ack -e 40 -c 1 -i 33 -a 1 -x {3.0 1.0 -1 ------- null}
r -t 0.306304 -s 0 -d 1 -p ack -e 40 -c 1 -i 32 -a 1 -x {3.0 1.0 16 ------- null}
+ -t 0.306304 -s 1 -d 0 -p tcp -e 552 -c 1 -i 35 -a 1 -x {1.0 3.0 24 ------- null}
- -t 0.306304 -s 1 -d 0 -p tcp -e 552 -c 1 -i 35 -a 1 -x {1.0 3.0 24 ------- null}
h -t 0.306304 -s 1 -d 0 -p tcp -e 552 -c 1 -i 35 -a 1 -x {1.0 3.0 -1 ------- null}
+ -t 0.306304 -s 1 -d 0 -p tcp -e 552 -c 1 -i 36 -a 1 -x {1.0 3.0 25 ------- null}
+ -t 0.306304 -s 1 -d 0 -p tcp -e 552 -c 1 -i 37 -a 1 -x {1.0 3.0 26 ------- null}
r -t 0.307744 -s 0 -d 3 -p tcp -e 552 -c 1 -i 29 -a 1 -x {1.0 3.0 21 ------- null}
- -t 0.31072 -s 1 -d 0 -p tcp -e 552 -c 1 -i 36 -a 1 -x {1.0 3.0 25 ------- null}
h -t 0.31072 -s 1 -d 0 -p tcp -e 552 -c 1 -i 36 -a 1 -x {1.0 3.0 -1 ------- null}
r -t 0.31216 -s 0 -d 3 -p tcp -e 552 -c 1 -i 30 -a 1 -x {1.0 3.0 22 ------- null}
+ -t 0.31216 -s 3 -d 0 -p ack -e 40 -c 1 -i 38 -a 1 -x {3.0 1.0 22 ------- null}
- -t 0.31216 -s 3 -d 0 -p ack -e 40 -c 1 -i 38 -a 1 -x {3.0 1.0 22 ------- null}
h -t 0.31216 -s 3 -d 0 -p ack -e 40 -c 1 -i 38 -a 1 -x {3.0 1.0 -1 ------- null}
r -t 0.313648 -s 3 -d 0 -p ack -e 40 -c 1 -i 34 -a 1 -x {3.0 1.0 20 ------- null}
+ -t 0.313648 -s 0 -d 1 -p ack -e 40 -c 1 -i 34 -a 1 -x {3.0 1.0 20 ------- null}
- -t 0.313648 -s 0 -d 1 -p ack -e 40 -c 1 -i 34 -a 1 -x {3.0 1.0 20 ------- null}
h -t 0.313648 -s 0 -d 1 -p ack -e 40 -c 1 -i 34 -a 1 -x {3.0 1.0 -1 ------- null}
r -t 0.315136 -s 0 -d 1 -p ack -e 40 -c 1 -i 33 -a 1 -x {3.0 1.0 18 ------- null}
+ -t 0.315136 -s 1 -d 0 -p tcp -e 552 -c 1 -i 39 -a 1 -x {1.0 3.0 27 ------- null}
+ -t 0.315136 -s 1 -d 0 -p tcp -e 552 -c 1 -i 40 -a 1 -x {1.0 3.0 28 ------- null}
+ -t 0.315136 -s 1 -d 0 -p tcp -e 552 -c 1 -i 41 -a 1 -x {1.0 3.0 29 ------- null}
- -t 0.315136 -s 1 -d 0 -p tcp -e 552 -c 1 -i 37 -a 1 -x {1.0 3.0 26 ------- null}
h -t 0.315136 -s 1 -d 0 -p tcp -e 552 -c 1 -i 37 -a 1 -x {1.0 3.0 -1 ------- null}
r -t 0.316576 -s 0 -d 3 -p tcp -e 552 -c 1 -i 31 -a 1 -x {1.0 3.0 23 ------- null}
- -t 0.319552 -s 1 -d 0 -p tcp -e 552 -c 1 -i 39 -a 1 -x {1.0 3.0 27 ------- null}
h -t 0.319552 -s 1 -d 0 -p tcp -e 552 -c 1 -i 39 -a 1 -x {1.0 3.0 -1 ------- null}
r -t 0.32072 -s 1 -d 0 -p tcp -e 552 -c 1 -i 35 -a 1 -x {1.0 3.0 24 ------- null}
+ -t 0.32072 -s 0 -d 3 -p tcp -e 552 -c 1 -i 35 -a 1 -x {1.0 3.0 24 ------- null}
- -t 0.32072 -s 0 -d 3 -p tcp -e 552 -c 1 -i 35 -a 1 -x {1.0 3.0 24 ------- null}
h -t 0.32072 -s 0 -d 3 -p tcp -e 552 -c 1 -i 35 -a 1 -x {1.0 3.0 -1 ------- null}
r -t 0.32248 -s 3 -d 0 -p ack -e 40 -c 1 -i 38 -a 1 -x {3.0 1.0 22 ------- null}
+ -t 0.32248 -s 0 -d 1 -p ack -e 40 -c 1 -i 38 -a 1 -x {3.0 1.0 22 ------- null}
- -t 0.32248 -s 0 -d 1 -p ack -e 40 -c 1 -i 38 -a 1 -x {3.0 1.0 22 ------- null}
h -t 0.32248 -s 0 -d 1 -p ack -e 40 -c 1 -i 38 -a 1 -x {3.0 1.0 -1 ------- null}
r -t 0.323968 -s 0 -d 1 -p ack -e 40 -c 1 -i 34 -a 1 -x {3.0 1.0 20 ------- null}
+ -t 0.323968 -s 1 -d 0 -p tcp -e 552 -c 1 -i 42 -a 1 -x {1.0 3.0 30 ------- null}
+ -t 0.323968 -s 1 -d 0 -p tcp -e 552 -c 1 -i 43 -a 1 -x {1.0 3.0 31 ------- null}
+ -t 0.323968 -s 1 -d 0 -p tcp -e 552 -c 1 -i 44 -a 1 -x {1.0 3.0 32 ------- null}
- -t 0.323968 -s 1 -d 0 -p tcp -e 552 -c 1 -i 40 -a 1 -x {1.0 3.0 28 ------- null}
h -t 0.323968 -s 1 -d 0 -p tcp -e 552 -c 1 -i 40 -a 1 -x {1.0 3.0 -1 ------- null}
r -t 0.325136 -s 1 -d 0 -p tcp -e 552 -c 1 -i 36 -a 1 -x {1.0 3.0 25 ------- null}
+ -t 0.325136 -s 0 -d 3 -p tcp -e 552 -c 1 -i 36 -a 1 -x {1.0 3.0 25 ------- null}
- -t 0.325136 -s 0 -d 3 -p tcp -e 552 -c 1 -i 36 -a 1 -x {1.0 3.0 25 ------- null}
h -t 0.325136 -s 0 -d 3 -p tcp -e 552 -c 1 -i 36 -a 1 -x {1.0 3.0 -1 ------- null}
- -t 0.328384 -s 1 -d 0 -p tcp -e 552 -c 1 -i 41 -a 1 -x {1.0 3.0 29 ------- null}
h -t 0.328384 -s 1 -d 0 -p tcp -e 552 -c 1 -i 41 -a 1 -x {1.0 3.0 -1 ------- null}
r -t 0.329552 -s 1 -d 0 -p tcp -e 552 -c 1 -i 37 -a 1 -x {1.0 3.0 26 ------- null}
+ -t 0.329552 -s 0 -d 3 -p tcp -e 552 -c 1 -i 37 -a 1 -x {1.0 3.0 26 ------- null}
- -t 0.329552 -s 0 -d 3 -p tcp -e 552 -c 1 -i 37 -a 1 -x {1.0 3.0 26 ------- null}
h -t 0.329552 -s 0 -d 3 -p tcp -e 552 -c 1 -i 37 -a 1 -x {1.0 3.0 -1 ------- null}
r -t 0.3328 -s 0 -d 1 -p ack -e 40 -c 1 -i 38 -a 1 -x {3.0 1.0 22 ------- null}
+ -t 0.3328 -s 1 -d 0 -p tcp -e 552 -c 1 -i 45 -a 1 -x {1.0 3.0 33 ------- null}
+ -t 0.3328 -s 1 -d 0 -p tcp -e 552 -c 1 -i 46 -a 1 -x {1.0 3.0 34 ------- null}
+ -t 0.3328 -s 1 -d 0 -p tcp -e 552 -c 1 -i 47 -a 1 -x {1.0 3.0 35 ------- null}
- -t 0.3328 -s 1 -d 0 -p tcp -e 552 -c 1 -i 42 -a 1 -x {1.0 3.0 30 ------- null}
h -t 0.3328 -s 1 -d 0 -p tcp -e 552 -c 1 -i 42 -a 1 -x {1.0 3.0 -1 ------- null}
r -t 0.333968 -s 1 -d 0 -p tcp -e 552 -c 1 -i 39 -a 1 -x {1.0 3.0 27 ------- null}
+ -t 0.333968 -s 0 -d 3 -p tcp -e 552 -c 1 -i 39 -a 1 -x {1.0 3.0 27 ------- null}
- -t 0.333968 -s 0 -d 3 -p tcp -e 552 -c 1 -i 39 -a 1 -x {1.0 3.0 27 ------- null}
h -t 0.333968 -s 0 -d 3 -p tcp -e 552 -c 1 -i 39 -a 1 -x {1.0 3.0 -1 ------- null}
r -t 0.335136 -s 0 -d 3 -p tcp -e 552 -c 1 -i 35 -a 1 -x {1.0 3.0 24 ------- null}
+ -t 0.335136 -s 3 -d 0 -p ack -e 40 -c 1 -i 48 -a 1 -x {3.0 1.0 24 ------- null}
- -t 0.335136 -s 3 -d 0 -p ack -e 40 -c 1 -i 48 -a 1 -x {3.0 1.0 24 ------- null}
h -t 0.335136 -s 3 -d 0 -p ack -e 40 -c 1 -i 48 -a 1 -x {3.0 1.0 -1 ------- null}
- -t 0.337216 -s 1 -d 0 -p tcp -e 552 -c 1 -i 43 -a 1 -x {1.0 3.0 31 ------- null}
h -t 0.337216 -s 1 -d 0 -p tcp -e 552 -c 1 -i 43 -a 1 -x {1.0 3.0 -1 ------- null}
r -t 0.338384 -s 1 -d 0 -p tcp -e 552 -c 1 -i 40 -a 1 -x {1.0 3.0 28 ------- null}
+ -t 0.338384 -s 0 -d 3 -p tcp -e 552 -c 1 -i 40 -a 1 -x {1.0 3.0 28 ------- null}
- -t 0.338384 -s 0 -d 3 -p tcp -e 552 -c 1 -i 40 -a 1 -x {1.0 3.0 28 ------- null}
h -t 0.338384 -s 0 -d 3 -p tcp -e 552 -c 1 -i 40 -a 1 -x {1.0 3.0 -1 ------- null}
r -t 0.339552 -s 0 -d 3 -p tcp -e 552 -c 1 -i 36 -a 1 -x {1.0 3.0 25 ------- null}
- -t 0.341632 -s 1 -d 0 -p tcp -e 552 -c 1 -i 44 -a 1 -x {1.0 3.0 32 ------- null}
h -t 0.341632 -s 1 -d 0 -p tcp -e 552 -c 1 -i 44 -a 1 -x {1.0 3.0 -1 ------- null}
r -t 0.3428 -s 1 -d 0 -p tcp -e 552 -c 1 -i 41 -a 1 -x {1.0 3.0 29 ------- null}
+ -t 0.3428 -s 0 -d 3 -p tcp -e 552 -c 1 -i 41 -a 1 -x {1.0 3.0 29 ------- null}
- -t 0.3428 -s 0 -d 3 -p tcp -e 552 -c 1 -i 41 -a 1 -x {1.0 3.0 29 ------- null}
h -t 0.3428 -s 0 -d 3 -p tcp -e 552 -c 1 -i 41 -a 1 -x {1.0 3.0 -1 ------- null}
r -t 0.343968 -s 0 -d 3 -p tcp -e 552 -c 1 -i 37 -a 1 -x {1.0 3.0 26 ------- null}
+ -t 0.343968 -s 3 -d 0 -p ack -e 40 -c 1 -i 49 -a 1 -x {3.0 1.0 26 ------- null}
- -t 0.343968 -s 3 -d 0 -p ack -e 40 -c 1 -i 49 -a 1 -x {3.0 1.0 26 ------- null}
h -t 0.343968 -s 3 -d 0 -p ack -e 40 -c 1 -i 49 -a 1 -x {3.0 1.0 -1 ------- null}
r -t 0.345456 -s 3 -d 0 -p ack -e 40 -c 1 -i 48 -a 1 -x {3.0 1.0 24 ------- null}
+ -t 0.345456 -s 0 -d 1 -p ack -e 40 -c 1 -i 48 -a 1 -x {3.0 1.0 24 ------- null}
- -t 0.345456 -s 0 -d 1 -p ack -e 40 -c 1 -i 48 -a 1 -x {3.0 1.0 24 ------- null}
h -t 0.345456 -s 0 -d 1 -p ack -e 40 -c 1 -i 48 -a 1 -x {3.0 1.0 -1 ------- null}
- -t 0.346048 -s 1 -d 0 -p tcp -e 552 -c 1 -i 45 -a 1 -x {1.0 3.0 33 ------- null}
h -t 0.346048 -s 1 -d 0 -p tcp -e 552 -c 1 -i 45 -a 1 -x {1.0 3.0 -1 ------- null}
r -t 0.347216 -s 1 -d 0 -p tcp -e 552 -c 1 -i 42 -a 1 -x {1.0 3.0 30 ------- null}