+ 0 1 0 tcp 40 ------- 1 1.0 3.0 0 0
- 0 1 0 tcp 40 ------- 1 1.0 3.0 0 0
r 0.01032 1 0 tcp 40 ------- 1 1.0 3.0 0 0
+ 0.01032 0 3 tcp 40 ------- 1 1.0 3.0 0 0
- 0.01032 0 3 tcp 40 ------- 1 1.0 3.0 0 0
r 0.02064 0 3 tcp 40 ------- 1 1.0 3.0 0 0
+ 0.02064 3 0 ack 40 ------- 1 3.0 1.0 0 1
- 0.02064 3 0 ack 40 ------- 1 3.0 1.0 0 1
r 0.03096 3 0 ack 40 ------- 1 3.0 1.0 0 1
+ 0.03096 0 1 ack 40 ------- 1 3.0 1.0 0 1
- 0.03096 0 1 ack 40 ------- 1 3.0 1.0 0 1
r 0.04128 0 1 ack 40 ------- 1 3.0 1.0 0 1
+ 0.04128 1 0 tcp 552 ------- 1 1.0 3.0 1 2
- 0.04128 1 0 tcp 552 ------- 1 1.0 3.0 1 2
+ 0.04128 1 0 tcp 552 ------- 1 1.0 3.0 2 3
- 0.045696 1 0 tcp 552 ------- 1 1.0 3.0 2 3
r 0.055696 1 0 tcp 552 ------- 1 1.0 3.0 1 2
+ 0.055696 0 3 tcp 552 ------- 1 1.0 3.0 1 2
- 0.055696 0 3 tcp 552 ------- 1 1.0 3.0 1 2
r 0.060112 1 0 tcp 552 ------- 1 1.0 3.0 2 3
+ 0.060112 0 3 tcp 552 ------- 1 1.0 3.0 2 3
- 0.060112 0 3 tcp 552 ------- 1 1.0 3.0 2 3
r 0.070112 0 3 tcp 552 ------- 1 1.0 3.0 1 2
r 0.074528 0 3 tcp 552 ------- 1 1.0 3.0 2 3
+ 0.074528 3 0 ack 40 ------- 1 3.0 1.0 2 4
- 0.074528 3 0 ack 40 ------- 1 3.0 1.0 2 4
r 0.084848 3 0 ack 40 ------- 1 3.0 1.0 2 4
+ 0.084848 0 1 ack 40 ------- 1 3.0 1.0 2 4
- 0.084848 0 1 ack 40 ------- 1 3.0 1.0 2 4
r 0.095168 0 1 ack 40 ------- 1 3.0 1.0 2 4
+ 0.095168 1 0 tcp 552 ------- 1 1.0 3.0 3 5
- 0.095168 1 0 tcp 552 ------- 1 1.0 3.0 3 5
+ 0.095168 1 0 tcp 552 ------- 1 1.0 3.0 4 6
+ 0.095168 1 0 tcp 552 ------- 1 1.0 3.0 5 7
- 0.099584 1 0 tcp 552 ------- 1 1.0 3.0 4 6
- 0.104 1 0 tcp 552 ------- 1 1.0 3.0 5 7
r 0.109584 1 0 tcp 552 ------- 1 1.0 3.0 3 5
+ 0.109584 0 3 tcp 552 ------- 1 1.0 3.0 3 5
- 0.109584 0 3 tcp 552 ------- 1 1.0 3.0 3 5
r 0.114 1 0 tcp 552 ------- 1 1.0 3.0 4 6
+ 0.114 0 3 tcp 552 ------- 1 1.0 3.0 4 6
- 0.114 0 3 tcp 552 ------- 1 1.0 3.0 4 6
r 0.118416 1 0 tcp 552 ------- 1 1.0 3.0 5 7
+ 0.118416 0 3 tcp 552 ------- 1 1.0 3.0 5 7
- 0.118416 0 3 tcp 552 ------- 1 1.0 3.0 5 7
r 0.124 0 3 tcp 552 ------- 1 1.0 3.0 3 5
r 0.128416 0 3 tcp 552 ------- 1 1.0 3.0 4 6
+ 0.128416 3 0 ack 40 ------- 1 3.0 1.0 4 8
- 0.128416 3 0 ack 40 ------- 1 3.0 1.0 4 8
r 0.132832 0 3 tcp 552 ------- 1 1.0 3.0 5 7
r 0.138736 3 0 ack 40 ------- 1 3.0 1.0 4 8
+ 0.138736 0 1 ack 40 ------- 1 3.0 1.0 4 8
- 0.138736 0 1 ack 40 ------- 1 3.0 1.0 4 8
r 0.149056 0 1 ack 40 ------- 1 3.0 1.0 4 8
+ 0.149056 1 0 tcp 552 ------- 1 1.0 3.0 6 9
- 0.149056 1 0 tcp 552 ------- 1 1.0 3.0 6 9
+ 0.149056 1 0 tcp 552 ------- 1 1.0 3.0 7 10
+ 0.149056 1 0 tcp 552 ------- 1 1.0 3.0 8 11
- 0.153472 1 0 tcp 552 ------- 1 1.0 3.0 7 10
- 0.157888 1 0 tcp 552 ------- 1 1.0 3.0 8 11
r 0.163472 1 0 tcp 552 ------- 1 1.0 3.0 6 9
+ 0.163472 0 3 tcp 552 ------- 1 1.0 3.0 6 9
- 0.163472 0 3 tcp 552 ------- 1 1.0 3.0 6 9
r 0.167888 1 0 tcp 552 ------- 1 1.0 3.0 7 10
+ 0.167888 0 3 tcp 552 ------- 1 1.0 3.0 7 10
- 0.167888 0 3 tcp 552 ------- 1 1.0 3.0 7 10
r 0.172304 1 0 tcp 552 ------- 1 1.0 3.0 8 11
+ 0.172304 0 3 tcp 552 ------- 1 1.0 3.0 8 11
- 0.172304 0 3 tcp 552 ------- 1 1.0 3.0 8 11
r 0.177888 0 3 tcp 552 ------- 1 1.0 3.0 6 9
+ 0.177888 3 0 ack 40 ------- 1 3.0 1.0 6 12
- 0.177888 3 0 ack 40 ------- 1 3.0 1.0 6 12
r 0.182304 0 3 tcp 552 ------- 1 1.0 3.0 7 10
r 0.18672 0 3 tcp 552 ------- 1 1.0 3.0 8 11
+ 0.18672 3 0 ack 40 ------- 1 3.0 1.0 8 13
- 0.18672 3 0 ack 40 ------- 1 3.0 1.0 8 13
r 0.188208 3 0 ack 40 ------- 1 3.0 1.0 6 12
+ 0.188208 0 1 ack 40 ------- 1 3.0 1.0 6 12
- 0.188208 0 1 ack 40 ------- 1 3.0 1.0 6 12
r 0.19704 3 0 ack 40 ------- 1 3.0 1.0 8 13
+ 0.19704 0 1 ack 40 ------- 1 3.0 1.0 8 13
- 0.19704 0 1 ack 40 ------- 1 3.0 1.0 8 13
r 0.198528 0 1 ack 40 ------- 1 3.0 1.0 6 12
+ 0.198528 1 0 tcp 552 ------- 1 1.0 3.0 9 14
- 0.198528 1 0 tcp 552 ------- 1 1.0 3.0 9 14
+ 0.198528 1 0 tcp 552 ------- 1 1.0 3.0 10 15
+ 0.198528 1 0 tcp 552 ------- 1 1.0 3.0 11 16
- 0.202944 1 0 tcp 552 ------- 1 1.0 3.0 10 15
r 0.20736 0 1 ack 40 ------- 1 3.0 1.0 8 13
+ 0.20736 1 0 tcp 552 ------- 1 1.0 3.0 12 17
+ 0.20736 1 0 tcp 552 ------- 1 1.0 3.0 13 18
+ 0.20736 1 0 tcp 552 ------- 1 1.0 3.0 14 19
- 0.20736 1 0 tcp 552 ------- 1 1.0 3.0 11 16
- 0.211776 1 0 tcp 552 ------- 1 1.0 3.0 12 17
r 0.212944 1 0 tcp 552 ------- 1 1.0 3.0 9 14
+ 0.212944 0 3 tcp 552 ------- 1 1.0 3.0 9 14
- 0.212944 0 3 tcp 552 ------- 1 1.0 3.0 9 14
- 0.216192 1 0 tcp 552 ------- 1 1.0 3.0 13 18
r 0.21736 1 0 tcp 552 ------- 1 1.0 3.0 10 15
+ 0.21736 0 3 tcp 552 ------- 1 1.0 3.0 10 15
- 0.21736 0 3 tcp 552 ------- 1 1.0 3.0 10 15
- 0.220608 1 0 tcp 552 ------- 1 1.0 3.0 14 19
r 0.221776 1 0 tcp 552 ------- 1 1.0 3.0 11 16
+ 0.221776 0 3 tcp 552 ------- 1 1.0 3.0 11 16
- 0.221776 0 3 tcp 552 ------- 1 1.0 3.0 11 16
r 0.226192 1 0 tcp 552 ------- 1 1.0 3.0 12 17
+ 0.226192 0 3 tcp 552 ------- 1 1.0 3.0 12 17
- 0.226192 0 3 tcp 552 ------- 1 1.0 3.0 12 17
r 0.22736 0 3 tcp 552 ------- 1 1.0 3.0 9 14
r 0.230608 1 0 tcp 552 ------- 1 1.0 3.0 13 18
+ 0.230608 0 3 tcp 552 ------- 1 1.0 3.0 13 18
- 0.230608 0 3 tcp 552 ------- 1 1.0 3.0 13 18
r 0.231776 0 3 tcp 552 ------- 1 1.0 3.0 10 15
+ 0.231776 3 0 ack 40 ------- 1 3.0 1.0 10 20
- 0.231776 3 0 ack 40 ------- 1 3.0 1.0 10 20
r 0.235024 1 0 tcp 552 ------- 1 1.0 3.0 14 19
+ 0.235024 0 3 tcp 552 ------- 1 1.0 3.0 14 19
- 0.235024 0 3 tcp 552 ------- 1 1.0 3.0 14 19
r 0.236192 0 3 tcp 552 ------- 1 1.0 3.0 11 16
r 0.240608 0 3 tcp 552 ------- 1 1.0 3.0 12 17
+ 0.240608 3 0 ack 40 ------- 1 3.0 1.0 12 21
- 0.240608 3 0 ack 40 ------- 1 3.0 1.0 12 21
r 0.242096 3 0 ack 40 ------- 1 3.0 1.0 10 20
+ 0.242096 0 1 ack 40 ------- 1 3.0 1.0 10 20
- 0.242096 0 1 ack 40 ------- 1 3.0 1.0 10 20
r 0.245024 0 3 tcp 552 ------- 1 1.0 3.0 13 18
r 0.24944 0 3 tcp 552 ------- 1 1.0 3.0 14 19
+ 0.24944 3 0 ack 40 ------- 1 3.0 1.0 14 22
- 0.24944 3 0 ack 40 ------- 1 3.0 1.0 14 22
r 0.250928 3 0 ack 40 ------- 1 3.0 1.0 12 21
+ 0.250928 0 1 ack 40 ------- 1 3.0 1.0 12 21
- 0.250928 0 1 ack 40 ------- 1 3.0 1.0 12 21
r 0.252416 0 1 ack 40 ------- 1 3.0 1.0 10 20
+ 0.252416 1 0 tcp 552 ------- 1 1.0 3.0 15 23
- 0.252416 1 0 tcp 552 ------- 1 1.0 3.0 15 23
+ 0.252416 1 0 tcp 552 ------- 1 1.0 3.0 16 24
+ 0.252416 1 0 tcp 552 ------- 1 1.0 3.0 17 25
- 0.256832 1 0 tcp 552 ------- 1 1.0 3.0 16 24
r 0.25976 3 0 ack 40 ------- 1 3.0 1.0 14 22
+ 0.25976 0 1 ack 40 ------- 1 3.0 1.0 14 22
- 0.25976 0 1 ack 40 ------- 1 3.0 1.0 14 22
- 0.261248 1 0 tcp 552 ------- 1 1.0 3.0 17 25
r 0.261248 0 1 ack 40 ------- 1 3.0 1.0 12 21
+ 0.261248 1 0 tcp 552 ------- 1 1.0 3.0 18 26
+ 0.261248 1 0 tcp 552 ------- 1 1.0 3.0 19 27
+ 0.261248 1 0 tcp 552 ------- 1 1.0 3.0 20 28
- 0.265664 1 0 tcp 552 ------- 1 1.0 3.0 18 26
r 0.266832 1 0 tcp 552 ------- 1 1.0 3.0 15 23
+ 0.266832 0 3 tcp 552 ------- 1 1.0 3.0 15 23
- 0.266832 0 3 tcp 552 ------- 1 1.0 3.0 15 23
- 0.27008 1 0 tcp 552 ------- 1 1.0 3.0 19 27
r 0.27008 0 1 ack 40 ------- 1 3.0 1.0 14 22
+ 0.27008 1 0 tcp 552 ------- 1 1.0 3.0 21 29
+ 0.27008 1 0 tcp 552 ------- 1 1.0 3.0 22 30
+ 0.27008 1 0 tcp 552 ------- 1 1.0 3.0 23 31
r 0.271248 1 0 tcp 552 ------- 1 1.0 3.0 16 24
+ 0.271248 0 3 tcp 552 ------- 1 1.0 3.0 16 24
- 0.271248 0 3 tcp 552 ------- 1 1.0 3.0 16 24
- 0.274496 1 0 tcp 552 ------- 1 1.0 3.0 20 28
r 0.275664 1 0 tcp 552 ------- 1 1.0 3.0 17 25
+ 0.275664 0 3 tcp 552 ------- 1 1.0 3.0 17 25
- 0.275664 0 3 tcp 552 ------- 1 1.0 3.0 17 25
- 0.278912 1 0 tcp 552 ------- 1 1.0 3.0 21 29
r 0.28008 1 0 tcp 552 ------- 1 1.0 3.0 18 26
+ 0.28008 0 3 tcp 552 ------- 1 1.0 3.0 18 26
- 0.28008 0 3 tcp 552 ------- 1 1.0 3.0 18 26
r 0.281248 0 3 tcp 552 ------- 1 1.0 3.0 15 23
- 0.283328 1 0 tcp 552 ------- 1 1.0 3.0 22 30
r 0.284496 1 0 tcp 552 ------- 1 1.0 3.0 19 27
+ 0.284496 0 3 tcp 552 ------- 1 1.0 3.0 19 27
- 0.284496 0 3 tcp 552 ------- 1 1.0 3.0 19 27
r 0.285664 0 3 tcp 552 ------- 1 1.0 3.0 16 24
+ 0.285664 3 0 ack 40 ------- 1 3.0 1.0 16 32
- 0.285664 3 0 ack 40 ------- 1 3.0 1.0 16 32
- 0.287744 1 0 tcp 552 ------- 1 1.0 3.0 23 31
r 0.288912 1 0 tcp 552 ------- 1 1.0 3.0 20 28
+ 0.288912 0 3 tcp 552 ------- 1 1.0 3.0 20 28
- 0.288912 0 3 tcp 552 ------- 1 1.0 3.0 20 28
r 0.29008 0 3 tcp 552 ------- 1 1.0 3.0 17 25
r 0.293328 1 0 tcp 552 ------- 1 1.0 3.0 21 29
+ 0.293328 0 3 tcp 552 ------- 1 1.0 3.0 21 29
- 0.293328 0 3 tcp 552 ------- 1 1.0 3.0 21 29
r 0.294496 0 3 tcp 552 ------- 1 1.0 3.0 18 26
+ 0.294496 3 0 ack 40 ------- 1 3.0 1.0 18 33
- 0.294496 3 0 ack 40 ------- 1 3.0 1.0 18 33
r 0.295984 3 0 ack 40 ------- 1 3.0 1.0 16 32
+ 0.295984 0 1 ack 40 ------- 1 3.0 1.0 16 32
- 0.295984 0 1 ack 40 ------- 1 3.0 1.0 16 32
r 0.297744 1 0 tcp 552 ------- 1 1.0 3.0 22 30
+ 0.297744 0 3 tcp 552 ------- 1 1.0 3.0 22 30
- 0.297744 0 3 tcp 552 ------- 1 1.0 3.0 22 30
r 0.298912 0 3 tcp 552 ------- 1 1.0 3.0 19 27
r 0.30216 1 0 tcp 552 ------- 1 1.0 3.0 23 31
+ 0.30216 0 3 tcp 552 ------- 1 1.0 3.0 23 31
- 0.30216 0 3 tcp 552 ------- 1 1.0 3.0 23 31
r 0.303328 0 3 tcp 552 ------- 1 1.0 3.0 20 28
+ 0.303328 3 0 ack 40 ------- 1 3.0 1.0 20 34
- 0.303328 3 0 ack 40 ------- 1 3.0 1.0 20 34
r 0.304816 3 0 ack 40 ------- 1 3.0 1.0 18 33
+ 0.304816 0 1 ack 40 ------- 1 3.0 1.0 18 33
- 0.304816 0 1 ack 40 ------- 1 3.0 1.0 18 33
r 0.306304 0 1 ack 40 ------- 1 3.0 1.0 16 32
+ 0.306304 1 0 tcp 552 ------- 1 1.0 3.0 24 35
- 0.306304 1 0 tcp 552 ------- 1 1.0 3.0 24 35
+ 0.306304 1 0 tcp 552 ------- 1 1.0 3.0 25 36
+ 0.306304 1 0 tcp 552 ------- 1 1.0 3.0 26 37
r 0.307744 0 3 tcp 552 ------- 1 1.0 3.0 21 29
- 0.31072 1 0 tcp 552 ------- 1 1.0 3.0 25 36
r 0.31216 0 3 tcp 552 ------- 1 1.0 3.0 22 30
+ 0.31216 3 0 ack 40 ------- 1 3.0 1.0 22 38
- 0.31216 3 0 ack 40 ------- 1 3.0 1.0 22 38
r 0.313648 3 0 ack 40 ------- 1 3.0 1.0 20 34
+ 0.313648 0 1 ack 40 ------- 1 3.0 1.0 20 34
- 0.313648 0 1 ack 40 ------- 1 3.0 1.0 20 34
r 0.315136 0 1 ack 40 ------- 1 3.0 1.0 18 33
+ 0.315136 1 0 tcp 552 ------- 1 1.0 3.0 27 39
+ 0.315136 1 0 tcp 552 ------- 1 1.0 3.0 28 40
+ 0.315136 1 0 tcp 552 ------- 1 1.0 3.0 29 41
- 0.315136 1 0 tcp 552 ------- 1 1.0 3.0 26 37
r 0.316576 0 3 tcp 552 ------- 1 1.0 3.0 23 31
- 0.319552 1 0 tcp 552 ------- 1 1.0 3.0 27 39
r 0.32072 1 0 tcp 552 ------- 1 1.0 3.0 24 35
+ 0.32072 0 3 tcp 552 ------- 1 1.0 3.0 24 35
- 0.32072 0 3 tcp 552 ------- 1 1.0 3.0 24 35
r 0.32248 3 0 ack 40 ------- 1 3.0 1.0 22 38
+ 0.32248 0 1 ack 40 ------- 1 3.0 1.0 22 38
- 0.32248 0 1 ack 40 ------- 1 3.0 1.0 22 38
r 0.323968 0 1 ack 40 ------- 1 3.0 1.0 20 34
+ 0.323968 1 0 tcp 552 ------- 1 1.0 3.0 30 42
+ 0.323968 1 0 tcp 552 ------- 1 1.0 3.0 31 43
+ 0.323968 1 0 tcp 552 ------- 1 1.0 3.0 32 44
- 0.323968 1 0 tcp 552 ------- 1 1.0 3.0 28 40
r 0.325136 1 0 tcp 552 ------- 1 1.0 3.0 25 36
+ 0.325136 0 3 tcp 552 ------- 1 1.0 3.0 25 36
- 0.325136 0 3 tcp 552 ------- 1 1.0 3.0 25 36
- 0.328384 1 0 tcp 552 ------- 1 1.0 3.0 29 41
r 0.329552 1 0 tcp 552 ------- 1 1.0 3.0 26 37
+ 0.329552 0 3 tcp 552 ------- 1 1.0 3.0 26 37
- 0.329552 0 3 tcp 552 ------- 1 1.0 3.0 26 37
r 0.3328 0 1 ack 40 ------- 1 3.0 1.0 22 38
+ 0.3328 1 0 tcp 552 ------- 1 1.0 3.0 33 45
+ 0.3328 1 0 tcp 552 ------- 1 1.0 3.0 34 46
+ 0.3328 1 0 tcp 552 ------- 1 1.0 3.0 35 47
- 0.3328 1 0 tcp 552 ------- 1 1.0 3.0 30 42
r 0.333968 1 0 tcp 552 ------- 1 1.0 3.0 27 39
+ 0.333968 0 3 tcp 552 ------- 1 1.0 3.0 27 39
- 0.333968 0 3 tcp 552 ------- 1 1.0 3.0 27 39
r 0.335136 0 3 tcp 552 ------- 1 1.0 3.0 24 35
+ 0.335136 3 0 ack 40 ------- 1 3.0 1.0 24 48
- 0.335136 3 0 ack 40 ------- 1 3.0 1.0 24 48
- 0.337216 1 0 tcp 552 ------- 1 1.0 3.0 31 43
r 0.338384 1 0 tcp 552 ------- 1 1.0 3.0 28 40
+ 0.338384 0 3 tcp 552 ------- 1 1.0 3.0 28 40
- 0.338384 0 3 tcp 552 ------- 1 1.0 3.0 28 40
r 0.339552 0 3 tcp 552 ------- 1 1.0 3.0 25 36
- 0.341632 1 0 tcp 552 ------- 1 1.0 3.0 32 44
r 0.3428 1 0 tcp 552 ------- 1 1.0 3.0 29 41
+ 0.3428 0 3 tcp 552 ------- 1 1.0 3.0 29 41
- 0.3428 0 3 tcp 552 ------- 1 1.0 3.0 29 41
r 0.343968 0 3 tcp 552 ------- 1 1.0 3.0 26 37
+ 0.343968 3 0 ack 40 ------- 1 3.0 1.0 26 49
- 0.343968 3 0 ack 40 ------- 1 3.0 1.0 26 49
r 0.345456 3 0 ack 40 ------- 1 3.0 1.0 24 48
+ 0.345456 0 1 ack 40 ------- 1 3.0 1.0 24 48
- 0.345456 0 1 ack 40 ------- 1 3.0 1.0 24 48
- 0.346048 1 0 tcp 552 ------- 1 1.0 3.0 33 45
r 0.347216 1 0 tcp 552 ------- 1 1.0 3.0 30 42
+ 0.347216 0 3 tcp 552 ------- 1 1.0 3.0 30 42
- 0.347216 0 3 tcp 552 ------- 1 1.0 3.0 30 42
r 0.348384 0 3 tcp 552 ------- 1 1.0 3.0 27 39
- 0.350464 1 0 tcp 552 ------- 1 1.0 3.0 34 46
r 0.351632 1 0 tcp 552 ------- 1 1.0 3.0 31 43
+ 0.351632 0 3 tcp 552 ------- 1 1.0 3.0 31 43
- 0.351632 0 3 tcp 552 ------- 1 1.0 3.0 31 43
r 0.3528 0 3 tcp 552 ------- 1 1.0 3.0 28 40
+ 0.3528 3 0 ack 40 ------- 1 3.0 1.0 28 50
- 0.3528 3 0 ack 40 ------- 1 3.0 1.0 28 50
r 0.354288 3 0 ack 40 ------- 1 3.0 1.0 26 49
+ 0.354288 0 1 ack 40 ------- 1 3.0 1.0 26 49
- 0.354288 0 1 ack 40 ------- 1 3.0 1.0 26 49
- 0.35488 1 0 tcp 552 ------- 1 1.0 3.0 35 47
r 0.355776 0 1 ack 40 ------- 1 3.0 1.0 24 48
+ 0.355776 1 0 tcp 552 ------- 1 1.0 3.0 36 51
+ 0.355776 1 0 tcp 552 ------- 1 1.0 3.0 37 52
+ 0.355776 1 0 tcp 552 ------- 1 1.0 3.0 38 53
r 0.356048 1 0 tcp 552 ------- 1 1.0 3.0 32 44
+ 0.356048 0 3 tcp 552 ------- 1 1.0 3.0 32 44
- 0.356048 0 3 tcp 552 ------- 1 1.0 3.0 32 44
r 0.357216 0 3 tcp 552 ------- 1 1.0 3.0 29 41
- 0.359296 1 0 tcp 552 ------- 1 1.0 3.0 36 51
r 0.360464 1 0 tcp 552 ------- 1 1.0 3.0 33 45
+ 0.360464 0 3 tcp 552 ------- 1 1.0 3.0 33 45
- 0.360464 0 3 tcp 552 ------- 1 1.0 3.0 33 45
r 0.361632 0 3 tcp 552 ------- 1 1.0 3.0 30 42
+ 0.361632 3 0 ack 40 ------- 1 3.0 1.0 30 54
- 0.361632 3 0 ack 40 ------- 1 3.0 1.0 30 54
r 0.36312 3 0 ack 40 ------- 1 3.0 1.0 28 50
+ 0.36312 0 1 ack 40 ------- 1 3.0 1.0 28 50
- 0.36312 0 1 ack 40 ------- 1 3.0 1.0 28 50
- 0.363712 1 0 tcp 552 ------- 1 1.0 3.0 37 52
r 0.364608 0 1 ack 40 ------- 1 3.0 1.0 26 49
+ 0.364608 1 0 tcp 552 ------- 1 1.0 3.0 39 55
+ 0.364608 1 0 tcp 552 ------- 1 1.0 3.0 40 56
+ 0.364608 1 0 tcp 552 ------- 1 1.0 3.0 41 57
r 0.36488 1 0 tcp 552 ------- 1 1.0 3.0 34 46
+ 0.36488 0 3 tcp 552 ------- 1 1.0 3.0 34 46
- 0.36488 0 3 tcp 552 ------- 1 1.0 3.0 34 46
r 0.366048 0 3 tcp 552 ------- 1 1.0 3.0 31 43
- 0.368128 1 0 tcp 552 ------- 1 1.0 3.0 38 53
r 0.369296 1 0 tcp 552 ------- 1 1.0 3.0 35 47
+ 0.369296 0 3 tcp 552 ------- 1 1.0 3.0 35 47
- 0.369296 0 3 tcp 552 ------- 1 1.0 3.0 35 47
r 0.370464 0 3 tcp 552 ------- 1 1.0 3.0 32 44
+ 0.370464 3 0 ack 40 ------- 1 3.0 1.0 32 58
- 0.370464 3 0 ack 40 ------- 1 3.0 1.0 32 58
r 0.371952 3 0 ack 40 ------- 1 3.0 1.0 30 54
+ 0.371952 0 1 ack 40 ------- 1 3.0 1.0 30 54
- 0.371952 0 1 ack 40 ------- 1 3.0 1.0 30 54
- 0.372544 1 0 tcp 552 ------- 1 1.0 3.0 39 55
r 0.37344 0 1 ack 40 ------- 1 3.0 1.0 28 50
+ 0.37344 1 0 tcp 552 ------- 1 1.0 3.0 42 59
+ 0.37344 1 0 tcp 552 ------- 1 1.0 3.0 43 60
+ 0.37344 1 0 tcp 552 ------- 1 1.0 3.0 44 61
r 0.373712 1 0 tcp 552 ------- 1 1.0 3.0 36 51
+ 0.373712 0 3 tcp 552 ------- 1 1.0 3.0 36 51
- 0.373712 0 3 tcp 552 ------- 1 1.0 3.0 36 51
r 0.37488 0 3 tcp 552 ------- 1 1.0 3.0 33 45
- 0.37696 1 0 tcp 552 ------- 1 1.0 3.0 40 56
r 0.378128 1 0 tcp 552 ------- 1 1.0 3.0 37 52
+ 0.378128 0 3 tcp 552 ------- 1 1.0 3.0 37 52
- 0.378128 0 3 tcp 552 ------- 1 1.0 3.0 37 52
r 0.379296 0 3 tcp 552 ------- 1 1.0 3.0 34 46
+ 0.379296 3 0 ack 40 ------- 1 3.0 1.0 34 62
- 0.379296 3 0 ack 40 ------- 1 3.0 1.0 34 62
r 0.380784 3 0 ack 40 ------- 1 3.0 1.0 32 58
+ 0.380784 0 1 ack 40 ------- 1 3.0 1.0 32 58
- 0.380784 0 1 ack 40 ------- 1 3.0 1.0 32 58
- 0.381376 1 0 tcp 552 ------- 1 1.0 3.0 41 57
r 0.382272 0 1 ack 40 ------- 1 3.0 1.0 30 54
+ 0.382272 1 0 tcp 552 ------- 1 1.0 3.0 45 63
+ 0.382272 1 0 tcp 552 ------- 1 1.0 3.0 46 64
+ 0.382272 1 0 tcp 552 ------- 1 1.0 3.0 47 65
r 0.382544 1 0 tcp 552 ------- 1 1.0 3.0 38 53
+ 0.382544 0 3 tcp 552 ------- 1 1.0 3.0 38 53
- 0.382544 0 3 tcp 552 ------- 1 1.0 3.0 38 53
r 0.383712 0 3 tcp 552 ------- 1 1.0 3.0 35 47
- 0.385792 1 0 tcp 552 ------- 1 1.0 3.0 42 59
r 0.38696 1 0 tcp 552 ------- 1 1.0 3.0 39 55
+ 0.38696 0 3 tcp 552 ------- 1 1.0 3.0 39 55
- 0.38696 0 3 tcp 552 ------- 1 1.0 3.0 39 55
r 0.388128 0 3 tcp 552 ------- 1 1.0 3.0 36 51
+ 0.388128 3 0 ack 40 ------- 1 3.0 1.0 36 66
- 0.388128 3 0 ack 40 ------- 1 3.0 1.0 36 66
r 0.389616 3 0 ack 40 ------- 1 3.0 1.0 34 62
+ 0.389616 0 1 ack 40 ------- 1 3.0 1.0 34 62
- 0.389616 0 1 ack 40 ------- 1 3.0 1.0 34 62
- 0.390208 1 0 tcp 552 ------- 1 1.0 3.0 43 60
r 0.391104 0 1 ack 40 ------- 1 3.0 1.0 32 58
+ 0.391104 1 0 tcp 552 ------- 1 1.0 3.0 48 67
+ 0.391104 1 0 tcp 552 ------- 1 1.0 3.0 49 68
+ 0.391104 1 0 tcp 552 ------- 1 1.0 3.0 50 69
r 0.391376 1 0 tcp 552 ------- 1 1.0 3.0 40 56
+ 0.391376 0 3 tcp 552 ------- 1 1.0 3.0 40 56
- 0.391376 0 3 tcp 552 ------- 1 1.0 3.0 40 56
r 0.392544 0 3 tcp 552 ------- 1 1.0 3.0 37 52
- 0.394624 1 0 tcp 552 ------- 1 1.0 3.0 44 61
r 0.395792 1 0 tcp 552 ------- 1 1.0 3.0 41 57
+ 0.395792 0 3 tcp 552 ------- 1 1.0 3.0 41 57
- 0.395792 0 3 tcp 552 ------- 1 1.0 3.0 41 57
r 0.39696 0 3 tcp 552 ------- 1 1.0 3.0 38 53
+ 0.39696 3 0 ack 40 ------- 1 3.0 1.0 38 70
- 0.39696 3 0 ack 40 ------- 1 3.0 1.0 38 70
r 0.398448 3 0 ack 40 ------- 1 3.0 1.0 36 66
+ 0.398448 0 1 ack 40 ------- 1 3.0 1.0 36 66
- 0.398448 0 1 ack 40 ------- 1 3.0 1.0 36 66
- 0.39904 1 0 tcp 552 ------- 1 1.0 3.0 45 63
r 0.399936 0 1 ack 40 ------- 1 3.0 1.0 34 62
+ 0.399936 1 0 tcp 552 ------- 1 1.0 3.0 51 71
+ 0.399936 1 0 tcp 552 ------- 1 1.0 3.0 52 72
+ 0.399936 1 0 tcp 552 ------- 1 1.0 3.0 53 73
r 0.400208 1 0 tcp 552 ------- 1 1.0 3.0 42 59
+ 0.400208 0 3 tcp 552 ------- 1 1.0 3.0 42 59
- 0.400208 0 3 tcp 552 ------- 1 1.0 3.0 42 59
r 0.401376 0 3 tcp 552 ------- 1 1.0 3.0 39 55
- 0.403456 1 0 tcp 552 ------- 1 1.0 3.0 46 64
r 0.404624 1 0 tcp 552 ------- 1 1.0 3.0 43 60
+ 0.404624 0 3 tcp 552 ------- 1 1.0 3.0 43 60
- 0.404624 0 3 tcp 552 ------- 1 1.0 3.0 43 60
r 0.405792 0 3 tcp 552 ------- 1 1.0 3.0 40 56
+ 0.405792 3 0 ack 40 ------- 1 3.0 1.0 40 74
- 0.405792 3 0 ack 40 ------- 1 3.0 1.0 40 74
r 0.40728 3 0 ack 40 ------- 1 3.0 1.0 38 70
+ 0.40728 0 1 ack 40 ------- 1 3.0 1.0 38 70
- 0.40728 0 1 ack 40 ------- 1 3.0 1.0 38 70
- 0.407872 1 0 tcp 552 ------- 1 1.0 3.0 47 65
r 0.408768 0 1 ack 40 ------- 1 3.0 1.0 36 66
+ 0.408768 1 0 tcp 552 ------- 1 1.0 3.0 54 75
+ 0.408768 1 0 tcp 552 ------- 1 1.0 3.0 55 76
+ 0.408768 1 0 tcp 552 ------- 1 1.0 3.0 56 77
r 0.40904 1 0 tcp 552 ------- 1 1.0 3.0 44 61
+ 0.40904 0 3 tcp 552 ------- 1 1.0 3.0 44 61
- 0.40904 0 3 tcp 552 ------- 1 1.0 3.0 44 61
r 0.410208 0 3 tcp 552 ------- 1 1.0 3.0 41 57
- 0.412288 1 0 tcp 552 ------- 1 1.0 3.0 48 67
r 0.413456 1 0 tcp 552 ------- 1 1.0 3.0 45 63
+ 0.413456 0 3 tcp 552 ------- 1 1.0 3.0 45 63
- 0.413456 0 3 tcp 552 ------- 1 1.0 3.0 45 63
r 0.414624 0 3 tcp 552 ------- 1 1.0 3.0 42 59
+ 0.414624 3 0 ack 40 ------- 1 3.0 1.0 42 78
- 0.414624 3 0 ack 40 ------- 1 3.0 1.0 42 78
r 0.416112 3 0 ack 40 ------- 1 3.0 1.0 40 74
+ 0.416112 0 1 ack 40 ------- 1 3.0 1.0 40 74
- 0.416112 0 1 ack 40 ------- 1 3.0 1.0 40 74
- 0.416704 1 0 tcp 552 ------- 1 1.0 3.0 49 68
r 0.4176 0 1 ack 40 ------- 1 3.0 1.0 38 70
+ 0.4176 1 0 tcp 552 ------- 1 1.0 3.0 57 79
+ 0.4176 1 0 tcp 552 ------- 1 1.0 3.0 58 80
+ 0.4176 1 0 tcp 552 ------- 1 1.0 3.0 59 81
r 0.417872 1 0 tcp 552 ------- 1 1.0 3.0 46 64
+ 0.417872 0 3 tcp 552 ------- 1 1.0 3.0 46 64
- 0.417872 0 3 tcp 552 ------- 1 1.0 3.0 46 64
r 0.41904 0 3 tcp 552 ------- 1 1.0 3.0 43 60
- 0.42112 1 0 tcp 552 ------- 1 1.0 3.0 50 69
r 0.422288 1 0 tcp 552 ------- 1 1.0 3.0 47 65
+ 0.422288 0 3 tcp 552 ------- 1 1.0 3.0 47 65
- 0.422288 0 3 tcp 552 ------- 1 1.0 3.0 47 65
r 0.423456 0 3 tcp 552 ------- 1 1.0 3.0 44 61
+ 0.423456 3 0 ack 40 ------- 1 3.0 1.0 44 82
- 0.423456 3 0 ack 40 ------- 1 3.0 1.0 44 82
r 0.424944 3 0 ack 40 ------- 1 3.0 1.0 42 78
+ 0.424944 0 1 ack 40 ------- 1 3.0 1.0 42 78
- 0.424944 0 1 ack 40 ------- 1 3.0 1.0 42 78
- 0.425536 1 0 tcp 552 ------- 1 1.0 3.0 51 71
r 0.426432 0 1 ack 40 ------- 1 3.0 1.0 40 74
+ 0.426432 1 0 tcp 552 ------- 1 1.0 3.0 60 83
+ 0.426432 1 0 tcp 552 ------- 1 1.0 3.0 61 84
+ 0.426432 1 0 tcp 552 ------- 1 1.0 3.0 62 85
r 0.426704 1 0 tcp 552 ------- 1 1.0 3.0 48 67
+ 0.426704 0 3 tcp 552 ------- 1 1.0 3.0 48 67
- 0.426704 0 3 tcp 552 ------- 1 1.0 3.0 48 67
r 0.427872 0 3 tcp 552 ------- 1 1.0 3.0 45 63
- 0.429952 1 0 tcp 552 ------- 1 1.0 3.0 52 72
r 0.43112 1 0 tcp 552 ------- 1 1.0 3.0 49 68
+ 0.43112 0 3 tcp 552 ------- 1 1.0 3.0 49 68
- 0.43112 0 3 tcp 552 ------- 1 1.0 3.0 49 68
r 0.432288 0 3 tcp 552 ------- 1 1.0 3.0 46 64
+ 0.432288 3 0 ack 40 ------- 1 3.0 1.0 46 86
- 0.432288 3 0 ack 40 ------- 1 3.0 1.0 46 86
r 0.433776 3 0 ack 40 ------- 1 3.0 1.0 44 82
+ 0.433776 0 1 ack 40 ------- 1 3.0 1.0 44 82
- 0.433776 0 1 ack 40 ------- 1 3.0 1.0 44 82
- 0.434368 1 0 tcp 552 ------- 1 1.0 3.0 53 73
r 0.435264 0 1 ack 40 ------- 1 3.0 1.0 42 78
+ 0.435264 1 0 tcp 552 ------- 1 1.0 3.0 63 87
+ 0.435264 1 0 tcp 552 ------- 1 1.0 3.0 64 88
+ 0.435264 1 0 tcp 552 ------- 1 1.0 3.0 65 89
r 0.435536 1 0 tcp 552 ------- 1 1.0 3.0 50 69
+ 0.435536 0 3 tcp 552 ------- 1 1.0 3.0 50 69
- 0.435536 0 3 tcp 552 ------- 1 1.0 3.0 50 69
r 0.436704 0 3 tcp 552 ------- 1 1.0 3.0 47 65
- 0.438784 1 0 tcp 552 ------- 1 1.0 3.0 54 75
r 0.439952 1 0 tcp 552 ------- 1 1.0 3.0 51 71
+ 0.439952 0 3 tcp 552 ------- 1 1.0 3.0 51 71
- 0.439952 0 3 tcp 552 ------- 1 1.0 3.0 51 71
r 0.44112 0 3 tcp 552 ------- 1 1.0 3.0 48 67
+ 0.44112 3 0 ack 40 ------- 1 3.0 1.0 48 90
- 0.44112 3 0 ack 40 ------- 1 3.0 1.0 48 90
r 0.442608 3 0 ack 40 ------- 1 3.0 1.0 46 86
+ 0.442608 0 1 ack 40 ------- 1 3.0 1.0 46 86
- 0.442608 0 1 ack 40 ------- 1 3.0 1.0 46 86
- 0.4432 1 0 tcp 552 ------- 1 1.0 3.0 55 76
r 0.444096 0 1 ack 40 ------- 1 3.0 1.0 44 82
+ 0.444096 1 0 tcp 552 ------- 1 1.0 3.0 66 91
+ 0.444096 1 0 tcp 552 ------- 1 1.0 3.0 67 92
+ 0.444096 1 0 tcp 552 ------- 1 1.0 3.0 68 93
r 0.444368 1 0 tcp 552 ------- 1 1.0 3.0 52 72
+ 0.444368 0 3 tcp 552 ------- 1 1.0 3.0 52 72
- 0.444368 0 3 tcp 552 ------- 1 1.0 3.0 52 72
r 0.445536 0 3 tcp 552 ------- 1 1.0 3.0 49 68
- 0.447616 1 0 tcp 552 ------- 1 1.0 3.0 56 77
r 0.448784 1 0 tcp 552 ------- 1 1.0 3.0 53 73
+ 0.448784 0 3 tcp 552 ------- 1 1.0 3.0 53 73
- 0.448784 0 3 tcp 552 ------- 1 1.0 3.0 53 73
r 0.449952 0 3 tcp 552 ------- 1 1.0 3.0 50 69
+ 0.449952 3 0 ack 40 ------- 1 3.0 1.0 50 94
- 0.449952 3 0 ack 40 ------- 1 3.0 1.0 50 94
r 0.45144 3 0 ack 40 ------- 1 3.0 1.0 48 90
+ 0.45144 0 1 ack 40 ------- 1 3.0 1.0 48 90
- 0.45144 0 1 ack 40 ------- 1 3.0 1.0 48 90
- 0.452032 1 0 tcp 552 ------- 1 1.0 3.0 57 79
r 0.452928 0 1 ack 40 ------- 1 3.0 1.0 46 86
+ 0.452928 1 0 tcp 552 ------- 1 1.0 3.0 69 95
+ 0.452928 1 0 tcp 552 ------- 1 1.0 3.0 70 96
+ 0.452928 1 0 tcp 552 ------- 1 1.0 3.0 71 97
r 0.4532 1 0 tcp 552 ------- 1 1.0 3.0 54 75
+ 0.4532 0 3 tcp 552 ------- 1 1.0 3.0 54 75
- 0.4532 0 3 tcp 552 ------- 1 1.0 3.0 54 75
r 0.454368 0 3 tcp 552 ------- 1 1.0 3.0 51 71
- 0.456448 1 0 tcp 552 ------- 1 1.0 3.0 58 80
r 0.457616 1 0 tcp 552 ------- 1 1.0 3.0 55 76
+ 0.457616 0 3 tcp 552 ------- 1 1.0 3.0 55 76
- 0.457616 0 3 tcp 552 ------- 1 1.0 3.0 55 76
r 0.458784 0 3 tcp 552 ------- 1 1.0 3.0 52 72
+ 0.458784 3 0 ack 40 ------- 1 3.0 1.0 52 98
- 0.458784 3 0 ack 40 ------- 1 3.0 1.0 52 98
r 0.460272 3 0 ack 40 ------- 1 3.0 1.0 50 94
+ 0.460272 0 1 ack 40 ------- 1 3.0 1.0 50 94
- 0.460272 0 1 ack 40 ------- 1 3.0 1.0 50 94
- 0.460864 1 0 tcp 552 ------- 1 1.0 3.0 59 81
r 0.46176 0 1 ack 40 ------- 1 3.0 1.0 48 90
+ 0.46176 1 0 tcp 552 ------- 1 1.0 3.0 72 99
+ 0.46176 1 0 tcp 552 ------- 1 1.0 3.0 73 100
+ 0.46176 1 0 tcp 552 ------- 1 1.0 3.0 74 101
r 0.462032 1 0 tcp 552 ------- 1 1.0 3.0 56 77
+ 0.462032 0 3 tcp 552 ------- 1 1.0 3.0 56 77
- 0.462032 0 3 tcp 552 ------- 1 1.0 3.0 56 77
r 0.4632 0 3 tcp 552 ------- 1 1.0 3.0 53 73
- 0.46528 1 0 tcp 552 ------- 1 1.0 3.0 60 83
r 0.466448 1 0 tcp 552 ------- 1 1.0 3.0 57 79
+ 0.466448 0 3 tcp 552 ------- 1 1.0 3.0 57 79
- 0.466448 0 3 tcp 552 ------- 1 1.0 3.0 57 79
r 0.467616 0 3 tcp 552 ------- 1 1.0 3.0 54 75
+ 0.467616 3 0 ack 40 ------- 1 3.0 1.0 54 102
- 0.467616 3 0 ack 40 ------- 1 3.0 1.0 54 102
r 0.469104 3 0 ack 40 ------- 1 3.0 1.0 52 98
+ 0.469104 0 1 ack 40 ------- 1 3.0 1.0 52 98
- 0.469104 0 1 ack 40 ------- 1 3.0 1.0 52 98
- 0.469696 1 0 tcp 552 ------- 1 1.0 3.0 61 84
r 0.470592 0 1 ack 40 ------- 1 3.0 1.0 50 94
+ 0.470592 1 0 tcp 552 ------- 1 1.0 3.0 75 103
+ 0.470592 1 0 tcp 552 ------- 1 1.0 3.0 76 104
+ 0.470592 1 0 tcp 552 ------- 1 1.0 3.0 77 105
r 0.470864 1 0 tcp 552 ------- 1 1.0 3.0 58 80
+ 0.470864 0 3 tcp 552 ------- 1 1.0 3.0 58 80
- 0.470864 0 3 tcp 552 ------- 1 1.0 3.0 58 80
r 0.472032 0 3 tcp 552 ------- 1 1.0 3.0 55 76
- 0.474112 1 0 tcp 552 ------- 1 1.0 3.0 62 85
r 0.47528 1 0 tcp 552 ------- 1 1.0 3.0 59 81
+ 0.47528 0 3 tcp 552 ------- 1 1.0 3.0 59 81
- 0.47528 0 3 tcp 552 ------- 1 1.0 3.0 59 81
r 0.476448 0 3 tcp 552 ------- 1 1.0 3.0 56 77
+ 0.476448 3 0 ack 40 ------- 1 3.0 1.0 56 106
- 0.476448 3 0 ack 40 ------- 1 3.0 1.0 56 106
r 0.477936 3 0 ack 40 ------- 1 3.0 1.0 54 102
+ 0.477936 0 1 ack 40 ------- 1 3.0 1.0 54 102
- 0.477936 0 1 ack 40 ------- 1 3.0 1.0 54 102
- 0.478528 1 0 tcp 552 ------- 1 1.0 3.0 63 87
r 0.479424 0 1 ack 40 ------- 1 3.0 1.0 52 98
+ 0.479424 1 0 tcp 552 ------- 1 1.0 3.0 78 107
+ 0.479424 1 0 tcp 552 ------- 1 1.0 3.0 79 108
+ 0.479424 1 0 tcp 552 ------- 1 1.0 3.0 80 109
r 0.479696 1 0 tcp 552 ------- 1 1.0 3.0 60 83
+ 0.479696 0 3 tcp 552 ------- 1 1.0 3.0 60 83
- 0.479696 0 3 tcp 552 ------- 1 1.0 3.0 60 83
r 0.480864 0 3 tcp 552 ------- 1 1.0 3.0 57 79
- 0.482944 1 0 tcp 552 ------- 1 1.0 3.0 64 88
r 0.484112 1 0 tcp 552 ------- 1 1.0 3.0 61 84
+ 0.484112 0 3 tcp 552 ------- 1 1.0 3.0 61 84
- 0.484112 0 3 tcp 552 ------- 1 1.0 3.0 61 84
r 0.48528 0 3 tcp 552 ------- 1 1.0 3.0 58 80
+ 0.48528 3 0 ack 40 ------- 1 3.0 1.0 58 110
- 0.48528 3 0 ack 40 ------- 1 3.0 1.0 58 110
r 0.486768 3 0 ack 40 ------- 1 3.0 1.0 56 106
+ 0.486768 0 1 ack 40 ------- 1 3.0 1.0 56 106
- 0.486768 0 1 ack 40 ------- 1 3.0 1.0 56 106
- 0.48736 1 0 tcp 552 ------- 1 1.0 3.0 65 89
r 0.488256 0 1 ack 40 ------- 1 3.0 1.0 54 102
+ 0.488256 1 0 tcp 552 ------- 1 1.0 3.0 81 111
+ 0.488256 1 0 tcp 552 ------- 1 1.0 3.0 82 112
+ 0.488256 1 0 tcp 552 ------- 1 1.0 3.0 83 113
r 0.488528 1 0 tcp 552 ------- 1 1.0 3.0 62 85
+ 0.488528 0 3 tcp 552 ------- 1 1.0 3.0 62 85
- 0.488528 0 3 tcp 552 ------- 1 1.0 3.0 62 85
r 0.489696 0 3 tcp 552 ------- 1 1.0 3.0 59 81
- 0.491776 1 0 tcp 552 ------- 1 1.0 3.0 66 91
r 0.492944 1 0 tcp 552 ------- 1 1.0 3.0 63 87
+ 0.492944 0 3 tcp 552 ------- 1 1.0 3.0 63 87
- 0.492944 0 3 tcp 552 ------- 1 1.0 3.0 63 87
r 0.494112 0 3 tcp 552 ------- 1 1.0 3.0 60 83
+ 0.494112 3 0 ack 40 ------- 1 3.0 1.0 60 114
- 0.494112 3 0 ack 40 ------- 1 3.0 1.0 60 114
r 0.4956 3 0 ack 40 ------- 1 3.0 1.0 58 110
+ 0.4956 0 1 ack 40 ------- 1 3.0 1.0 58 110
- 0.4956 0 1 ack 40 ------- 1 3.0 1.0 58 110
- 0.496192 1 0 tcp 552 ------- 1 1.0 3.0 67 92
r 0.497088 0 1 ack 40 ------- 1 3.0 1.0 56 106
+ 0.497088 1 0 tcp 552 ------- 1 1.0 3.0 84 115
+ 0.497088 1 0 tcp 552 ------- 1 1.0 3.0 85 116
+ 0.497088 1 0 tcp 552 ------- 1 1.0 3.0 86 117
r 0.49736 1 0 tcp 552 ------- 1 1.0 3.0 64 88
+ 0.49736 0 3 tcp 552 ------- 1 1.0 3.0 64 88
- 0.49736 0 3 tcp 552 ------- 1 1.0 3.0 64 88
r 0.498528 0 3 tcp 552 ------- 1 1.0 3.0 61 84
- 0.500608 1 0 tcp 552 ------- 1 1.0 3.0 68 93
r 0.501776 1 0 tcp 552 ------- 1 1.0 3.0 65 89
+ 0.501776 0 3 tcp 552 ------- 1 1.0 3.0 65 89
- 0.501776 0 3 tcp 552 ------- 1 1.0 3.0 65 89
r 0.502944 0 3 tcp 552 ------- 1 1.0 3.0 62 85
+ 0.502944 3 0 ack 40 ------- 1 3.0 1.0 62 118
- 0.502944 3 0 ack 40 ------- 1 3.0 1.0 62 118
r 0.504432 3 0 ack 40 ------- 1 3.0 1.0 60 114
+ 0.504432 0 1 ack 40 ------- 1 3.0 1.0 60 114
- 0.504432 0 1 ack 40 ------- 1 3.0 1.0 60 114
- 0.505024 1 0 tcp 552 ------- 1 1.0 3.0 69 95
r 0.50592 0 1 ack 40 ------- 1 3.0 1.0 58 110
+ 0.50592 1 0 tcp 552 ------- 1 1.0 3.0 87 119
+ 0.50592 1 0 tcp 552 ------- 1 1.0 3.0 88 120
+ 0.50592 1 0 tcp 552 ------- 1 1.0 3.0 89 121
r 0.506192 1 0 tcp 552 ------- 1 1.0 3.0 66 91
+ 0.506192 0 3 tcp 552 ------- 1 1.0 3.0 66 91
- 0.506192 0 3 tcp 552 ------- 1 1.0 3.0 66 91
r 0.50736 0 3 tcp 552 ------- 1 1.0 3.0 63 87
- 0.50944 1 0 tcp 552 ------- 1 1.0 3.0 70 96
r 0.510608 1 0 tcp 552 ------- 1 1.0 3.0 67 92
+ 0.510608 0 3 tcp 552 ------- 1 1.0 3.0 67 92
- 0.510608 0 3 tcp 552 ------- 1 1.0 3.0 67 92
r 0.511776 0 3 tcp 552 ------- 1 1.0 3.0 64 88
+ 0.511776 3 0 ack 40 ------- 1 3.0 1.0 64 122
- 0.511776 3 0 ack 40 ------- 1 3.0 1.0 64 122
r 0.513264 3 0 ack 40 ------- 1 3.0 1.0 62 118
+ 0.513264 0 1 ack 40 ------- 1 3.0 1.0 62 118
- 0.513264 0 1 ack 40 ------- 1 3.0 1.0 62 118
- 0.513856 1 0 tcp 552 ------- 1 1.0 3.0 71 97
r 0.514752 0 1 ack 40 ------- 1 3.0 1.0 60 114
+ 0.514752 1 0 tcp 552 ------- 1 1.0 3.0 90 123
+ 0.514752 1 0 tcp 552 ------- 1 1.0 3.0 91 124
+ 0.514752 1 0 tcp 552 ------- 1 1.0 3.0 92 125
r 0.515024 1 0 tcp 552 ------- 1 1.0 3.0 68 93
+ 0.515024 0 3 tcp 552 ------- 1 1.0 3.0 68 93
- 0.515024 0 3 tcp 552 ------- 1 1.0 3.0 68 93
r 0.516192 0 3 tcp 552 ------- 1 1.0 3.0 65 89
- 0.518272 1 0 tcp 552 ------- 1 1.0 3.0 72 99
r 0.51944 1 0 tcp 552 ------- 1 1.0 3.0 69 95
+ 0.51944 0 3 tcp 552 ------- 1 1.0 3.0 69 95
- 0.51944 0 3 tcp 552 ------- 1 1.0 3.0 69 95
r 0.520608 0 3 tcp 552 ------- 1 1.0 3.0 66 91
+ 0.520608 3 0 ack 40 ------- 1 3.0 1.0 66 126
- 0.520608 3 0 ack 40 ------- 1 3.0 1.0 66 126
r 0.522096 3 0 ack 40 ------- 1 3.0 1.0 64 122
+ 0.522096 0 1 ack 40 ------- 1 3.0 1.0 64 122
- 0.522096 0 1 ack 40 ------- 1 3.0 1.0 64 122
- 0.522688 1 0 tcp 552 ------- 1 1.0 3.0 73 100
r 0.523584 0 1 ack 40 ------- 1 3.0 1.0 62 118
+ 0.523584 1 0 tcp 552 ------- 1 1.0 3.0 93 127
+ 0.523584 1 0 tcp 552 ------- 1 1.0 3.0 94 128
+ 0.523584 1 0 tcp 552 ------- 1 1.0 3.0 95 129
r 0.523856 1 0 tcp 552 ------- 1 1.0 3.0 70 96
+ 0.523856 0 3 tcp 552 ------- 1 1.0 3.0 70 96