V -t * -v 1.0a5 -a 0
A -t * -n 1 -p 0 -o 0x7fffffff -c 30 -a 1
A -t * -h 1 -m 1073741823 -s 0
c -t * -i 1 -n Blue
c -t * -i 2 -n Red
n -t * -a 4 -s 4 -S UP -v circle -c black -i black
n -t * -a 0 -s 0 -S UP -v circle -c black -i black
n -t * -a 5 -s 5 -S UP -v circle -c black -i black
n -t * -a 1 -s 1 -S UP -v circle -c black -i black
n -t * -a 2 -s 2 -S UP -v circle -c black -i black
n -t * -a 3 -s 3 -S UP -v circle -c black -i black
l -t * -s 0 -d 2 -S UP -r 2000000 -D 0.01 -c black -o right-down
l -t * -s 1 -d 2 -S UP -r 2000000 -D 0.01 -c black -o right-up
l -t * -s 2 -d 3 -S UP -r 300000 -D 0.10000000000000001 -c black -o right
l -t * -s 3 -d 4 -S UP -r 500000 -D 0.040000000000000001 -c black -o right-up
l -t * -s 3 -d 5 -S UP -r 500000 -D 0.040000000000000001 -c black -o right-down
q -t * -s 3 -d 2 -a 0.5
q -t * -s 2 -d 3 -a 0.5
+ -t 0.000169788487334637 -s 0 -d 2 -p rtProtoLS -e 100 -c 0 -i 2 -a 0 -x {0.2 2.1 -1 ------- null}
- -t 0.000169788487334637 -s 0 -d 2 -p rtProtoLS -e 100 -c 0 -i 2 -a 0 -x {0.2 2.1 -1 ------- null}
h -t 0.000169788487334637 -s 0 -d 2 -p rtProtoLS -e 100 -c 0 -i 2 -a 0 -x {0.2 2.1 -1 ------- null}
+ -t 0.00710233021858257 -s 2 -d 0 -p rtProtoLS -e 100 -c 0 -i 3 -a 0 -x {2.1 0.2 -1 ------- null}
- -t 0.00710233021858257 -s 2 -d 0 -p rtProtoLS -e 100 -c 0 -i 3 -a 0 -x {2.1 0.2 -1 ------- null}
h -t 0.00710233021858257 -s 2 -d 0 -p rtProtoLS -e 100 -c 0 -i 3 -a 0 -x {2.1 0.2 -1 ------- null}
+ -t 0.00710233021858257 -s 2 -d 1 -p rtProtoLS -e 100 -c 0 -i 4 -a 0 -x {2.1 1.2 -1 ------- null}
- -t 0.00710233021858257 -s 2 -d 1 -p rtProtoLS -e 100 -c 0 -i 4 -a 0 -x {2.1 1.2 -1 ------- null}
h -t 0.00710233021858257 -s 2 -d 1 -p rtProtoLS -e 100 -c 0 -i 4 -a 0 -x {2.1 1.2 -1 ------- null}
+ -t 0.00710233021858257 -s 2 -d 3 -p rtProtoLS -e 100 -c 0 -i 5 -a 0 -x {2.1 3.1 -1 ------- null}
- -t 0.00710233021858257 -s 2 -d 3 -p rtProtoLS -e 100 -c 0 -i 5 -a 0 -x {2.1 3.1 -1 ------- null}
h -t 0.00710233021858257 -s 2 -d 3 -p rtProtoLS -e 100 -c 0 -i 5 -a 0 -x {2.1 3.1 -1 ------- null}
r -t 0.0105697884873346 -s 0 -d 2 -p rtProtoLS -e 100 -c 0 -i 2 -a 0 -x {0.2 2.1 -1 ------- null}
+ -t 0.0105697884873346 -s 2 -d 0 -p rtProtoLS -e 20 -c 0 -i 6 -a 0 -x {2.1 0.2 -1 ------- null}
- -t 0.0105697884873346 -s 2 -d 0 -p rtProtoLS -e 20 -c 0 -i 6 -a 0 -x {2.1 0.2 -1 ------- null}
h -t 0.0105697884873346 -s 2 -d 0 -p rtProtoLS -e 20 -c 0 -i 6 -a 0 -x {2.1 0.2 -1 ------- null}
+ -t 0.0105697884873346 -s 2 -d 1 -p rtProtoLS -e 100 -c 0 -i 7 -a 0 -x {2.1 1.2 -1 ------- null}
- -t 0.0105697884873346 -s 2 -d 1 -p rtProtoLS -e 100 -c 0 -i 7 -a 0 -x {2.1 1.2 -1 ------- null}
h -t 0.0105697884873346 -s 2 -d 1 -p rtProtoLS -e 100 -c 0 -i 7 -a 0 -x {2.1 1.2 -1 ------- null}
+ -t 0.0105697884873346 -s 2 -d 3 -p rtProtoLS -e 100 -c 0 -i 8 -a 0 -x {2.1 3.1 -1 ------- null}
- -t 0.0105697884873346 -s 2 -d 3 -p rtProtoLS -e 100 -c 0 -i 8 -a 0 -x {2.1 3.1 -1 ------- null}
h -t 0.0105697884873346 -s 2 -d 3 -p rtProtoLS -e 100 -c 0 -i 8 -a 0 -x {2.1 3.1 -1 ------- null}
r -t 0.0175023302185826 -s 2 -d 0 -p rtProtoLS -e 100 -c 0 -i 3 -a 0 -x {2.1 0.2 -1 ------- null}
+ -t 0.0175023302185826 -s 0 -d 2 -p rtProtoLS -e 20 -c 0 -i 9 -a 0 -x {0.2 2.1 -1 ------- null}
- -t 0.0175023302185826 -s 0 -d 2 -p rtProtoLS -e 20 -c 0 -i 9 -a 0 -x {0.2 2.1 -1 ------- null}
h -t 0.0175023302185826 -s 0 -d 2 -p rtProtoLS -e 20 -c 0 -i 9 -a 0 -x {0.2 2.1 -1 ------- null}
r -t 0.0175023302185826 -s 2 -d 1 -p rtProtoLS -e 100 -c 0 -i 4 -a 0 -x {2.1 1.2 -1 ------- null}
+ -t 0.0175023302185826 -s 1 -d 2 -p rtProtoLS -e 20 -c 0 -i 10 -a 0 -x {1.2 2.1 -1 ------- null}
- -t 0.0175023302185826 -s 1 -d 2 -p rtProtoLS -e 20 -c 0 -i 10 -a 0 -x {1.2 2.1 -1 ------- null}
h -t 0.0175023302185826 -s 1 -d 2 -p rtProtoLS -e 20 -c 0 -i 10 -a 0 -x {1.2 2.1 -1 ------- null}
r -t 0.0206497884873346 -s 2 -d 0 -p rtProtoLS -e 20 -c 0 -i 6 -a 0 -x {2.1 0.2 -1 ------- null}
r -t 0.0209697884873346 -s 2 -d 1 -p rtProtoLS -e 100 -c 0 -i 7 -a 0 -x {2.1 1.2 -1 ------- null}
+ -t 0.0209697884873346 -s 1 -d 2 -p rtProtoLS -e 20 -c 0 -i 11 -a 0 -x {1.2 2.1 -1 ------- null}
- -t 0.0209697884873346 -s 1 -d 2 -p rtProtoLS -e 20 -c 0 -i 11 -a 0 -x {1.2 2.1 -1 ------- null}
h -t 0.0209697884873346 -s 1 -d 2 -p rtProtoLS -e 20 -c 0 -i 11 -a 0 -x {1.2 2.1 -1 ------- null}
r -t 0.0275823302185826 -s 0 -d 2 -p rtProtoLS -e 20 -c 0 -i 9 -a 0 -x {0.2 2.1 -1 ------- null}
r -t 0.0275823302185826 -s 1 -d 2 -p rtProtoLS -e 20 -c 0 -i 10 -a 0 -x {1.2 2.1 -1 ------- null}
r -t 0.0310497884873346 -s 1 -d 2 -p rtProtoLS -e 20 -c 0 -i 11 -a 0 -x {1.2 2.1 -1 ------- null}
+ -t 0.04406133552271 -s 3 -d 2 -p rtProtoLS -e 100 -c 0 -i 12 -a 0 -x {3.1 2.1 -1 ------- null}
- -t 0.04406133552271 -s 3 -d 2 -p rtProtoLS -e 100 -c 0 -i 12 -a 0 -x {3.1 2.1 -1 ------- null}
h -t 0.04406133552271 -s 3 -d 2 -p rtProtoLS -e 100 -c 0 -i 12 -a 0 -x {3.1 2.1 -1 ------- null}
+ -t 0.04406133552271 -s 3 -d 4 -p rtProtoLS -e 100 -c 0 -i 13 -a 0 -x {3.1 4.2 -1 ------- null}
- -t 0.04406133552271 -s 3 -d 4 -p rtProtoLS -e 100 -c 0 -i 13 -a 0 -x {3.1 4.2 -1 ------- null}
h -t 0.04406133552271 -s 3 -d 4 -p rtProtoLS -e 100 -c 0 -i 13 -a 0 -x {3.1 4.2 -1 ------- null}
+ -t 0.04406133552271 -s 3 -d 5 -p rtProtoLS -e 100 -c 0 -i 14 -a 0 -x {3.1 5.2 -1 ------- null}
- -t 0.04406133552271 -s 3 -d 5 -p rtProtoLS -e 100 -c 0 -i 14 -a 0 -x {3.1 5.2 -1 ------- null}
h -t 0.04406133552271 -s 3 -d 5 -p rtProtoLS -e 100 -c 0 -i 14 -a 0 -x {3.1 5.2 -1 ------- null}
r -t 0.08566133552271 -s 3 -d 4 -p rtProtoLS -e 100 -c 0 -i 13 -a 0 -x {3.1 4.2 -1 ------- null}
+ -t 0.08566133552271 -s 4 -d 3 -p rtProtoLS -e 20 -c 0 -i 17 -a 0 -x {4.2 3.1 -1 ------- null}
- -t 0.08566133552271 -s 4 -d 3 -p rtProtoLS -e 20 -c 0 -i 17 -a 0 -x {4.2 3.1 -1 ------- null}
h -t 0.08566133552271 -s 4 -d 3 -p rtProtoLS -e 20 -c 0 -i 17 -a 0 -x {4.2 3.1 -1 ------- null}
r -t 0.08566133552271 -s 3 -d 5 -p rtProtoLS -e 100 -c 0 -i 14 -a 0 -x {3.1 5.2 -1 ------- null}
+ -t 0.08566133552271 -s 5 -d 3 -p rtProtoLS -e 20 -c 0 -i 18 -a 0 -x {5.2 3.1 -1 ------- null}
- -t 0.08566133552271 -s 5 -d 3 -p rtProtoLS -e 20 -c 0 -i 18 -a 0 -x {5.2 3.1 -1 ------- null}
h -t 0.08566133552271 -s 5 -d 3 -p rtProtoLS -e 20 -c 0 -i 18 -a 0 -x {5.2 3.1 -1 ------- null}
r -t 0.109768996885249 -s 2 -d 3 -p rtProtoLS -e 100 -c 0 -i 5 -a 0 -x {2.1 3.1 -1 ------- null}
+ -t 0.109768996885249 -s 3 -d 2 -p rtProtoLS -e 20 -c 0 -i 19 -a 0 -x {3.1 2.1 -1 ------- null}
- -t 0.109768996885249 -s 3 -d 2 -p rtProtoLS -e 20 -c 0 -i 19 -a 0 -x {3.1 2.1 -1 ------- null}
h -t 0.109768996885249 -s 3 -d 2 -p rtProtoLS -e 20 -c 0 -i 19 -a 0 -x {3.1 2.1 -1 ------- null}
+ -t 0.109768996885249 -s 3 -d 4 -p rtProtoLS -e 100 -c 0 -i 20 -a 0 -x {3.1 4.2 -1 ------- null}
- -t 0.109768996885249 -s 3 -d 4 -p rtProtoLS -e 100 -c 0 -i 20 -a 0 -x {3.1 4.2 -1 ------- null}
h -t 0.109768996885249 -s 3 -d 4 -p rtProtoLS -e 100 -c 0 -i 20 -a 0 -x {3.1 4.2 -1 ------- null}
+ -t 0.109768996885249 -s 3 -d 5 -p rtProtoLS -e 100 -c 0 -i 21 -a 0 -x {3.1 5.2 -1 ------- null}
- -t 0.109768996885249 -s 3 -d 5 -p rtProtoLS -e 100 -c 0 -i 21 -a 0 -x {3.1 5.2 -1 ------- null}
h -t 0.109768996885249 -s 3 -d 5 -p rtProtoLS -e 100 -c 0 -i 21 -a 0 -x {3.1 5.2 -1 ------- null}
r -t 0.113236455154001 -s 2 -d 3 -p rtProtoLS -e 100 -c 0 -i 8 -a 0 -x {2.1 3.1 -1 ------- null}
+ -t 0.113236455154001 -s 3 -d 2 -p rtProtoLS -e 20 -c 0 -i 22 -a 0 -x {3.1 2.1 -1 ------- null}
- -t 0.113236455154001 -s 3 -d 2 -p rtProtoLS -e 20 -c 0 -i 22 -a 0 -x {3.1 2.1 -1 ------- null}
h -t 0.113236455154001 -s 3 -d 2 -p rtProtoLS -e 20 -c 0 -i 22 -a 0 -x {3.1 2.1 -1 ------- null}
+ -t 0.113236455154001 -s 3 -d 4 -p rtProtoLS -e 100 -c 0 -i 23 -a 0 -x {3.1 4.2 -1 ------- null}
- -t 0.113236455154001 -s 3 -d 4 -p rtProtoLS -e 100 -c 0 -i 23 -a 0 -x {3.1 4.2 -1 ------- null}
h -t 0.113236455154001 -s 3 -d 4 -p rtProtoLS -e 100 -c 0 -i 23 -a 0 -x {3.1 4.2 -1 ------- null}
+ -t 0.113236455154001 -s 3 -d 5 -p rtProtoLS -e 100 -c 0 -i 24 -a 0 -x {3.1 5.2 -1 ------- null}
- -t 0.113236455154001 -s 3 -d 5 -p rtProtoLS -e 100 -c 0 -i 24 -a 0 -x {3.1 5.2 -1 ------- null}
h -t 0.113236455154001 -s 3 -d 5 -p rtProtoLS -e 100 -c 0 -i 24 -a 0 -x {3.1 5.2 -1 ------- null}
r -t 0.12598133552271 -s 4 -d 3 -p rtProtoLS -e 20 -c 0 -i 17 -a 0 -x {4.2 3.1 -1 ------- null}
r -t 0.12598133552271 -s 5 -d 3 -p rtProtoLS -e 20 -c 0 -i 18 -a 0 -x {5.2 3.1 -1 ------- null}
r -t 0.146728002189377 -s 3 -d 2 -p rtProtoLS -e 100 -c 0 -i 12 -a 0 -x {3.1 2.1 -1 ------- null}
+ -t 0.146728002189377 -s 2 -d 3 -p rtProtoLS -e 20 -c 0 -i 25 -a 0 -x {2.1 3.1 -1 ------- null}
- -t 0.146728002189377 -s 2 -d 3 -p rtProtoLS -e 20 -c 0 -i 25 -a 0 -x {2.1 3.1 -1 ------- null}
h -t 0.146728002189377 -s 2 -d 3 -p rtProtoLS -e 20 -c 0 -i 25 -a 0 -x {2.1 3.1 -1 ------- null}
+ -t 0.146728002189377 -s 2 -d 0 -p rtProtoLS -e 100 -c 0 -i 26 -a 0 -x {2.1 0.2 -1 ------- null}
- -t 0.146728002189377 -s 2 -d 0 -p rtProtoLS -e 100 -c 0 -i 26 -a 0 -x {2.1 0.2 -1 ------- null}
h -t 0.146728002189377 -s 2 -d 0 -p rtProtoLS -e 100 -c 0 -i 26 -a 0 -x {2.1 0.2 -1 ------- null}
+ -t 0.146728002189377 -s 2 -d 1 -p rtProtoLS -e 100 -c 0 -i 27 -a 0 -x {2.1 1.2 -1 ------- null}
- -t 0.146728002189377 -s 2 -d 1 -p rtProtoLS -e 100 -c 0 -i 27 -a 0 -x {2.1 1.2 -1 ------- null}
h -t 0.146728002189377 -s 2 -d 1 -p rtProtoLS -e 100 -c 0 -i 27 -a 0 -x {2.1 1.2 -1 ------- null}
r -t 0.151368996885249 -s 3 -d 4 -p rtProtoLS -e 100 -c 0 -i 20 -a 0 -x {3.1 4.2 -1 ------- null}
+ -t 0.151368996885249 -s 4 -d 3 -p rtProtoLS -e 20 -c 0 -i 28 -a 0 -x {4.2 3.1 -1 ------- null}
- -t 0.151368996885249 -s 4 -d 3 -p rtProtoLS -e 20 -c 0 -i 28 -a 0 -x {4.2 3.1 -1 ------- null}
h -t 0.151368996885249 -s 4 -d 3 -p rtProtoLS -e 20 -c 0 -i 28 -a 0 -x {4.2 3.1 -1 ------- null}
r -t 0.151368996885249 -s 3 -d 5 -p rtProtoLS -e 100 -c 0 -i 21 -a 0 -x {3.1 5.2 -1 ------- null}
+ -t 0.151368996885249 -s 5 -d 3 -p rtProtoLS -e 20 -c 0 -i 29 -a 0 -x {5.2 3.1 -1 ------- null}
- -t 0.151368996885249 -s 5 -d 3 -p rtProtoLS -e 20 -c 0 -i 29 -a 0 -x {5.2 3.1 -1 ------- null}
h -t 0.151368996885249 -s 5 -d 3 -p rtProtoLS -e 20 -c 0 -i 29 -a 0 -x {5.2 3.1 -1 ------- null}
r -t 0.154836455154001 -s 3 -d 4 -p rtProtoLS -e 100 -c 0 -i 23 -a 0 -x {3.1 4.2 -1 ------- null}
+ -t 0.154836455154001 -s 4 -d 3 -p rtProtoLS -e 20 -c 0 -i 30 -a 0 -x {4.2 3.1 -1 ------- null}
- -t 0.154836455154001 -s 4 -d 3 -p rtProtoLS -e 20 -c 0 -i 30 -a 0 -x {4.2 3.1 -1 ------- null}
h -t 0.154836455154001 -s 4 -d 3 -p rtProtoLS -e 20 -c 0 -i 30 -a 0 -x {4.2 3.1 -1 ------- null}
r -t 0.154836455154001 -s 3 -d 5 -p rtProtoLS -e 100 -c 0 -i 24 -a 0 -x {3.1 5.2 -1 ------- null}
+ -t 0.154836455154001 -s 5 -d 3 -p rtProtoLS -e 20 -c 0 -i 31 -a 0 -x {5.2 3.1 -1 ------- null}
- -t 0.154836455154001 -s 5 -d 3 -p rtProtoLS -e 20 -c 0 -i 31 -a 0 -x {5.2 3.1 -1 ------- null}
h -t 0.154836455154001 -s 5 -d 3 -p rtProtoLS -e 20 -c 0 -i 31 -a 0 -x {5.2 3.1 -1 ------- null}
r -t 0.157128002189377 -s 2 -d 0 -p rtProtoLS -e 100 -c 0 -i 26 -a 0 -x {2.1 0.2 -1 ------- null}
+ -t 0.157128002189377 -s 0 -d 2 -p rtProtoLS -e 20 -c 0 -i 32 -a 0 -x {0.2 2.1 -1 ------- null}
- -t 0.157128002189377 -s 0 -d 2 -p rtProtoLS -e 20 -c 0 -i 32 -a 0 -x {0.2 2.1 -1 ------- null}
h -t 0.157128002189377 -s 0 -d 2 -p rtProtoLS -e 20 -c 0 -i 32 -a 0 -x {0.2 2.1 -1 ------- null}
r -t 0.157128002189377 -s 2 -d 1 -p rtProtoLS -e 100 -c 0 -i 27 -a 0 -x {2.1 1.2 -1 ------- null}
+ -t 0.157128002189377 -s 1 -d 2 -p rtProtoLS -e 20 -c 0 -i 33 -a 0 -x {1.2 2.1 -1 ------- null}
- -t 0.157128002189377 -s 1 -d 2 -p rtProtoLS -e 20 -c 0 -i 33 -a 0 -x {1.2 2.1 -1 ------- null}
h -t 0.157128002189377 -s 1 -d 2 -p rtProtoLS -e 20 -c 0 -i 33 -a 0 -x {1.2 2.1 -1 ------- null}
+ -t 0.16384 -s 0 -d 2 -p cbr -e 1000 -c 2 -i 34 -a 2 -x {0.0 4.0 4 ------- null}
- -t 0.16384 -s 0 -d 2 -p cbr -e 1000 -c 2 -i 34 -a 2 -x {0.0 4.0 4 ------- null}
h -t 0.16384 -s 0 -d 2 -p cbr -e 1000 -c 2 -i 34 -a 2 -x {0.0 4.0 -1 ------- null}
+ -t 0.16384 -s 0 -d 2 -p cbr -e 24 -c 2 -i 35 -a 2 -x {0.0 4.0 5 ------- null}
r -t 0.167208002189377 -s 0 -d 2 -p rtProtoLS -e 20 -c 0 -i 32 -a 0 -x {0.2 2.1 -1 ------- null}
r -t 0.167208002189377 -s 1 -d 2 -p rtProtoLS -e 20 -c 0 -i 33 -a 0 -x {1.2 2.1 -1 ------- null}
- -t 0.16784 -s 0 -d 2 -p cbr -e 24 -c 2 -i 35 -a 2 -x {0.0 4.0 5 ------- null}
h -t 0.16784 -s 0 -d 2 -p cbr -e 24 -c 2 -i 35 -a 2 -x {0.0 4.0 -1 ------- null}
r -t 0.17784 -s 0 -d 2 -p cbr -e 1000 -c 2 -i 34 -a 2 -x {0.0 4.0 4 ------- null}
+ -t 0.17784 -s 2 -d 3 -p cbr -e 1000 -c 2 -i 34 -a 2 -x {0.0 4.0 4 ------- null}
- -t 0.17784 -s 2 -d 3 -p cbr -e 1000 -c 2 -i 34 -a 2 -x {0.0 4.0 4 ------- null}
h -t 0.17784 -s 2 -d 3 -p cbr -e 1000 -c 2 -i 34 -a 2 -x {0.0 4.0 -1 ------- null}
r -t 0.177936 -s 0 -d 2 -p cbr -e 24 -c 2 -i 35 -a 2 -x {0.0 4.0 5 ------- null}
+ -t 0.177936 -s 2 -d 3 -p cbr -e 24 -c 2 -i 35 -a 2 -x {0.0 4.0 5 ------- null}
r -t 0.191688996885249 -s 4 -d 3 -p rtProtoLS -e 20 -c 0 -i 28 -a 0 -x {4.2 3.1 -1 ------- null}
r -t 0.191688996885249 -s 5 -d 3 -p rtProtoLS -e 20 -c 0 -i 29 -a 0 -x {5.2 3.1 -1 ------- null}
r -t 0.195156455154001 -s 4 -d 3 -p rtProtoLS -e 20 -c 0 -i 30 -a 0 -x {4.2 3.1 -1 ------- null}
r -t 0.195156455154001 -s 5 -d 3 -p rtProtoLS -e 20 -c 0 -i 31 -a 0 -x {5.2 3.1 -1 ------- null}
- -t 0.204506666666667 -s 2 -d 3 -p cbr -e 24 -c 2 -i 35 -a 2 -x {0.0 4.0 5 ------- null}
h -t 0.204506666666667 -s 2 -d 3 -p cbr -e 24 -c 2 -i 35 -a 2 -x {0.0 4.0 -1 ------- null}
r -t 0.210302330218583 -s 3 -d 2 -p rtProtoLS -e 20 -c 0 -i 19 -a 0 -x {3.1 2.1 -1 ------- null}
r -t 0.213769788487335 -s 3 -d 2 -p rtProtoLS -e 20 -c 0 -i 22 -a 0 -x {3.1 2.1 -1 ------- null}
+ -t 0.22058669092161 -s 4 -d 3 -p rtProtoLS -e 100 -c 0 -i 36 -a 0 -x {4.2 3.1 -1 ------- null}
- -t 0.22058669092161 -s 4 -d 3 -p rtProtoLS -e 100 -c 0 -i 36 -a 0 -x {4.2 3.1 -1 ------- null}
h -t 0.22058669092161 -s 4 -d 3 -p rtProtoLS -e 100 -c 0 -i 36 -a 0 -x {4.2 3.1 -1 ------- null}
+ -t 0.24576 -s 0 -d 2 -p cbr -e 1000 -c 2 -i 37 -a 2 -x {0.0 4.0 6 ------- null}
- -t 0.24576 -s 0 -d 2 -p cbr -e 1000 -c 2 -i 37 -a 2 -x {0.0 4.0 6 ------- null}
h -t 0.24576 -s 0 -d 2 -p cbr -e 1000 -c 2 -i 37 -a 2 -x {0.0 4.0 -1 ------- null}
+ -t 0.24576 -s 0 -d 2 -p cbr -e 24 -c 2 -i 38 -a 2 -x {0.0 4.0 7 ------- null}
r -t 0.24726133552271 -s 2 -d 3 -p rtProtoLS -e 20 -c 0 -i 25 -a 0 -x {2.1 3.1 -1 ------- null}
- -t 0.24976 -s 0 -d 2 -p cbr -e 24 -c 2 -i 38 -a 2 -x {0.0 4.0 7 ------- null}
h -t 0.24976 -s 0 -d 2 -p cbr -e 24 -c 2 -i 38 -a 2 -x {0.0 4.0 -1 ------- null}
r -t 0.25976 -s 0 -d 2 -p cbr -e 1000 -c 2 -i 37 -a 2 -x {0.0 4.0 6 ------- null}
+ -t 0.25976 -s 2 -d 3 -p cbr -e 1000 -c 2 -i 37 -a 2 -x {0.0 4.0 6 ------- null}
- -t 0.25976 -s 2 -d 3 -p cbr -e 1000 -c 2 -i 37 -a 2 -x {0.0 4.0 6 ------- null}
h -t 0.25976 -s 2 -d 3 -p cbr -e 1000 -c 2 -i 37 -a 2 -x {0.0 4.0 -1 ------- null}
r -t 0.259856 -s 0 -d 2 -p cbr -e 24 -c 2 -i 38 -a 2 -x {0.0 4.0 7 ------- null}
+ -t 0.259856 -s 2 -d 3 -p cbr -e 24 -c 2 -i 38 -a 2 -x {0.0 4.0 7 ------- null}
r -t 0.26218669092161 -s 4 -d 3 -p rtProtoLS -e 100 -c 0 -i 36 -a 0 -x {4.2 3.1 -1 ------- null}
+ -t 0.26218669092161 -s 3 -d 4 -p rtProtoLS -e 20 -c 0 -i 39 -a 0 -x {3.1 4.2 -1 ------- null}
- -t 0.26218669092161 -s 3 -d 4 -p rtProtoLS -e 20 -c 0 -i 39 -a 0 -x {3.1 4.2 -1 ------- null}
h -t 0.26218669092161 -s 3 -d 4 -p rtProtoLS -e 20 -c 0 -i 39 -a 0 -x {3.1 4.2 -1 ------- null}
+ -t 0.26218669092161 -s 3 -d 2 -p rtProtoLS -e 100 -c 0 -i 40 -a 0 -x {3.1 2.1 -1 ------- null}
- -t 0.26218669092161 -s 3 -d 2 -p rtProtoLS -e 100 -c 0 -i 40 -a 0 -x {3.1 2.1 -1 ------- null}
h -t 0.26218669092161 -s 3 -d 2 -p rtProtoLS -e 100 -c 0 -i 40 -a 0 -x {3.1 2.1 -1 ------- null}
+ -t 0.26218669092161 -s 3 -d 5 -p rtProtoLS -e 100 -c 0 -i 41 -a 0 -x {3.1 5.2 -1 ------- null}
- -t 0.26218669092161 -s 3 -d 5 -p rtProtoLS -e 100 -c 0 -i 41 -a 0 -x {3.1 5.2 -1 ------- null}
h -t 0.26218669092161 -s 3 -d 5 -p rtProtoLS -e 100 -c 0 -i 41 -a 0 -x {3.1 5.2 -1 ------- null}
+ -t 0.277940357931862 -s 1 -d 2 -p rtProtoLS -e 100 -c 0 -i 42 -a 0 -x {1.2 2.1 -1 ------- null}
- -t 0.277940357931862 -s 1 -d 2 -p rtProtoLS -e 100 -c 0 -i 42 -a 0 -x {1.2 2.1 -1 ------- null}
h -t 0.277940357931862 -s 1 -d 2 -p rtProtoLS -e 100 -c 0 -i 42 -a 0 -x {1.2 2.1 -1 ------- null}
- -t 0.286426666666667 -s 2 -d 3 -p cbr -e 24 -c 2 -i 38 -a 2 -x {0.0 4.0 7 ------- null}
h -t 0.286426666666667 -s 2 -d 3 -p cbr -e 24 -c 2 -i 38 -a 2 -x {0.0 4.0 -1 ------- null}
r -t 0.288340357931862 -s 1 -d 2 -p rtProtoLS -e 100 -c 0 -i 42 -a 0 -x {1.2 2.1 -1 ------- null}
+ -t 0.288340357931862 -s 2 -d 1 -p rtProtoLS -e 20 -c 0 -i 43 -a 0 -x {2.1 1.2 -1 ------- null}
- -t 0.288340357931862 -s 2 -d 1 -p rtProtoLS -e 20 -c 0 -i 43 -a 0 -x {2.1 1.2 -1 ------- null}
h -t 0.288340357931862 -s 2 -d 1 -p rtProtoLS -e 20 -c 0 -i 43 -a 0 -x {2.1 1.2 -1 ------- null}
+ -t 0.288340357931862 -s 2 -d 0 -p rtProtoLS -e 100 -c 0 -i 44 -a 0 -x {2.1 0.2 -1 ------- null}
- -t 0.288340357931862 -s 2 -d 0 -p rtProtoLS -e 100 -c 0 -i 44 -a 0 -x {2.1 0.2 -1 ------- null}
h -t 0.288340357931862 -s 2 -d 0 -p rtProtoLS -e 100 -c 0 -i 44 -a 0 -x {2.1 0.2 -1 ------- null}
+ -t 0.288340357931862 -s 2 -d 3 -p rtProtoLS -e 100 -c 0 -i 45 -a 0 -x {2.1 3.1 -1 ------- null}
- -t 0.288340357931862 -s 2 -d 3 -p rtProtoLS -e 100 -c 0 -i 45 -a 0 -x {2.1 3.1 -1 ------- null}
h -t 0.288340357931862 -s 2 -d 3 -p rtProtoLS -e 100 -c 0 -i 45 -a 0 -x {2.1 3.1 -1 ------- null}
r -t 0.298420357931862 -s 2 -d 1 -p rtProtoLS -e 20 -c 0 -i 43 -a 0 -x {2.1 1.2 -1 ------- null}
r -t 0.298740357931862 -s 2 -d 0 -p rtProtoLS -e 100 -c 0 -i 44 -a 0 -x {2.1 0.2 -1 ------- null}
+ -t 0.298740357931862 -s 0 -d 2 -p rtProtoLS -e 20 -c 0 -i 46 -a 0 -x {0.2 2.1 -1 ------- null}
- -t 0.298740357931862 -s 0 -d 2 -p rtProtoLS -e 20 -c 0 -i 46 -a 0 -x {0.2 2.1 -1 ------- null}
h -t 0.298740357931862 -s 0 -d 2 -p rtProtoLS -e 20 -c 0 -i 46 -a 0 -x {0.2 2.1 -1 ------- null}
r -t 0.30250669092161 -s 3 -d 4 -p rtProtoLS -e 20 -c 0 -i 39 -a 0 -x {3.1 4.2 -1 ------- null}
r -t 0.30378669092161 -s 3 -d 5 -p rtProtoLS -e 100 -c 0 -i 41 -a 0 -x {3.1 5.2 -1 ------- null}
+ -t 0.30378669092161 -s 5 -d 3 -p rtProtoLS -e 20 -c 0 -i 47 -a 0 -x {5.2 3.1 -1 ------- null}
- -t 0.30378669092161 -s 5 -d 3 -p rtProtoLS -e 20 -c 0 -i 47 -a 0 -x {5.2 3.1 -1 ------- null}
h -t 0.30378669092161 -s 5 -d 3 -p rtProtoLS -e 20 -c 0 -i 47 -a 0 -x {5.2 3.1 -1 ------- null}
r -t 0.304506666666667 -s 2 -d 3 -p cbr -e 1000 -c 2 -i 34 -a 2 -x {0.0 4.0 4 ------- null}
+ -t 0.304506666666667 -s 3 -d 4 -p cbr -e 1000 -c 2 -i 34 -a 2 -x {0.0 4.0 4 ------- null}
- -t 0.304506666666667 -s 3 -d 4 -p cbr -e 1000 -c 2 -i 34 -a 2 -x {0.0 4.0 4 ------- null}
h -t 0.304506666666667 -s 3 -d 4 -p cbr -e 1000 -c 2 -i 34 -a 2 -x {0.0 4.0 -1 ------- null}
r -t 0.305146666666667 -s 2 -d 3 -p cbr -e 24 -c 2 -i 35 -a 2 -x {0.0 4.0 5 ------- null}
+ -t 0.305146666666667 -s 3 -d 4 -p cbr -e 24 -c 2 -i 35 -a 2 -x {0.0 4.0 5 ------- null}
r -t 0.308820357931862 -s 0 -d 2 -p rtProtoLS -e 20 -c 0 -i 46 -a 0 -x {0.2 2.1 -1 ------- null}
- -t 0.320506666666667 -s 3 -d 4 -p cbr -e 24 -c 2 -i 35 -a 2 -x {0.0 4.0 5 ------- null}
h -t 0.320506666666667 -s 3 -d 4 -p cbr -e 24 -c 2 -i 35 -a 2 -x {0.0 4.0 -1 ------- null}
+ -t 0.32768 -s 0 -d 2 -p cbr -e 1000 -c 2 -i 48 -a 2 -x {0.0 4.0 8 ------- null}
- -t 0.32768 -s 0 -d 2 -p cbr -e 1000 -c 2 -i 48 -a 2 -x {0.0 4.0 8 ------- null}
h -t 0.32768 -s 0 -d 2 -p cbr -e 1000 -c 2 -i 48 -a 2 -x {0.0 4.0 -1 ------- null}
+ -t 0.32768 -s 0 -d 2 -p cbr -e 24 -c 2 -i 49 -a 2 -x {0.0 4.0 9 ------- null}
- -t 0.33168 -s 0 -d 2 -p cbr -e 24 -c 2 -i 49 -a 2 -x {0.0 4.0 9 ------- null}
h -t 0.33168 -s 0 -d 2 -p cbr -e 24 -c 2 -i 49 -a 2 -x {0.0 4.0 -1 ------- null}
r -t 0.34168 -s 0 -d 2 -p cbr -e 1000 -c 2 -i 48 -a 2 -x {0.0 4.0 8 ------- null}
+ -t 0.34168 -s 2 -d 3 -p cbr -e 1000 -c 2 -i 48 -a 2 -x {0.0 4.0 8 ------- null}
- -t 0.34168 -s 2 -d 3 -p cbr -e 1000 -c 2 -i 48 -a 2 -x {0.0 4.0 8 ------- null}
h -t 0.34168 -s 2 -d 3 -p cbr -e 1000 -c 2 -i 48 -a 2 -x {0.0 4.0 -1 ------- null}
r -t 0.341776 -s 0 -d 2 -p cbr -e 24 -c 2 -i 49 -a 2 -x {0.0 4.0 9 ------- null}
+ -t 0.341776 -s 2 -d 3 -p cbr -e 24 -c 2 -i 49 -a 2 -x {0.0 4.0 9 ------- null}
r -t 0.34410669092161 -s 5 -d 3 -p rtProtoLS -e 20 -c 0 -i 47 -a 0 -x {5.2 3.1 -1 ------- null}
r -t 0.360506666666667 -s 3 -d 4 -p cbr -e 1000 -c 2 -i 34 -a 2 -x {0.0 4.0 4 ------- null}
r -t 0.360890666666667 -s 3 -d 4 -p cbr -e 24 -c 2 -i 35 -a 2 -x {0.0 4.0 5 ------- null}
r -t 0.364853357588276 -s 3 -d 2 -p rtProtoLS -e 100 -c 0 -i 40 -a 0 -x {3.1 2.1 -1 ------- null}
+ -t 0.364853357588276 -s 2 -d 3 -p rtProtoLS -e 20 -c 0 -i 50 -a 0 -x {2.1 3.1 -1 ------- null}
+ -t 0.364853357588276 -s 2 -d 0 -p rtProtoLS -e 100 -c 0 -i 51 -a 0 -x {2.1 0.2 -1 ------- null}
- -t 0.364853357588276 -s 2 -d 0 -p rtProtoLS -e 100 -c 0 -i 51 -a 0 -x {2.1 0.2 -1 ------- null}
h -t 0.364853357588276 -s 2 -d 0 -p rtProtoLS -e 100 -c 0 -i 51 -a 0 -x {2.1 0.2 -1 ------- null}
+ -t 0.364853357588276 -s 2 -d 1 -p rtProtoLS -e 100 -c 0 -i 52 -a 0 -x {2.1 1.2 -1 ------- null}
- -t 0.364853357588276 -s 2 -d 1 -p rtProtoLS -e 100 -c 0 -i 52 -a 0 -x {2.1 1.2 -1 ------- null}
h -t 0.364853357588276 -s 2 -d 1 -p rtProtoLS -e 100 -c 0 -i 52 -a 0 -x {2.1 1.2 -1 ------- null}
- -t 0.368346666666667 -s 2 -d 3 -p cbr -e 24 -c 2 -i 49 -a 2 -x {0.0 4.0 9 ------- null}
h -t 0.368346666666667 -s 2 -d 3 -p cbr -e 24 -c 2 -i 49 -a 2 -x {0.0 4.0 -1 ------- null}
- -t 0.368986666666667 -s 2 -d 3 -p rtProtoLS -e 20 -c 0 -i 50 -a 0 -x {2.1 3.1 -1 ------- null}
h -t 0.368986666666667 -s 2 -d 3 -p rtProtoLS -e 20 -c 0 -i 50 -a 0 -x {2.1 3.1 -1 ------- null}
r -t 0.375253357588276 -s 2 -d 0 -p rtProtoLS -e 100 -c 0 -i 51 -a 0 -x {2.1 0.2 -1 ------- null}
+ -t 0.375253357588276 -s 0 -d 2 -p rtProtoLS -e 20 -c 0 -i 53 -a 0 -x {0.2 2.1 -1 ------- null}
- -t 0.375253357588276 -s 0 -d 2 -p rtProtoLS -e 20 -c 0 -i 53 -a 0 -x {0.2 2.1 -1 ------- null}
h -t 0.375253357588276 -s 0 -d 2 -p rtProtoLS -e 20 -c 0 -i 53 -a 0 -x {0.2 2.1 -1 ------- null}
r -t 0.375253357588276 -s 2 -d 1 -p rtProtoLS -e 100 -c 0 -i 52 -a 0 -x {2.1 1.2 -1 ------- null}
+ -t 0.375253357588276 -s 1 -d 2 -p rtProtoLS -e 20 -c 0 -i 54 -a 0 -x {1.2 2.1 -1 ------- null}
- -t 0.375253357588276 -s 1 -d 2 -p rtProtoLS -e 20 -c 0 -i 54 -a 0 -x {1.2 2.1 -1 ------- null}
h -t 0.375253357588276 -s 1 -d 2 -p rtProtoLS -e 20 -c 0 -i 54 -a 0 -x {1.2 2.1 -1 ------- null}
r -t 0.385333357588276 -s 0 -d 2 -p rtProtoLS -e 20 -c 0 -i 53 -a 0 -x {0.2 2.1 -1 ------- null}
r -t 0.385333357588276 -s 1 -d 2 -p rtProtoLS -e 20 -c 0 -i 54 -a 0 -x {1.2 2.1 -1 ------- null}
r -t 0.386426666666667 -s 2 -d 3 -p cbr -e 1000 -c 2 -i 37 -a 2 -x {0.0 4.0 6 ------- null}
+ -t 0.386426666666667 -s 3 -d 4 -p cbr -e 1000 -c 2 -i 37 -a 2 -x {0.0 4.0 6 ------- null}
- -t 0.386426666666667 -s 3 -d 4 -p cbr -e 1000 -c 2 -i 37 -a 2 -x {0.0 4.0 6 ------- null}
h -t 0.386426666666667 -s 3 -d 4 -p cbr -e 1000 -c 2 -i 37 -a 2 -x {0.0 4.0 -1 ------- null}
r -t 0.387066666666667 -s 2 -d 3 -p cbr -e 24 -c 2 -i 38 -a 2 -x {0.0 4.0 7 ------- null}
+ -t 0.387066666666667 -s 3 -d 4 -p cbr -e 24 -c 2 -i 38 -a 2 -x {0.0 4.0 7 ------- null}
r -t 0.391007024598529 -s 2 -d 3 -p rtProtoLS -e 100 -c 0 -i 45 -a 0 -x {2.1 3.1 -1 ------- null}
+ -t 0.391007024598529 -s 3 -d 2 -p rtProtoLS -e 20 -c 0 -i 55 -a 0 -x {3.1 2.1 -1 ------- null}
- -t 0.391007024598529 -s 3 -d 2 -p rtProtoLS -e 20 -c 0 -i 55 -a 0 -x {3.1 2.1 -1 ------- null}
h -t 0.391007024598529 -s 3 -d 2 -p rtProtoLS -e 20 -c 0 -i 55 -a 0 -x {3.1 2.1 -1 ------- null}
+ -t 0.391007024598529 -s 3 -d 4 -p rtProtoLS -e 100 -c 0 -i 56 -a 0 -x {3.1 4.2 -1 ------- null}
+ -t 0.391007024598529 -s 3 -d 5 -p rtProtoLS -e 100 -c 0 -i 57 -a 0 -x {3.1 5.2 -1 ------- null}
- -t 0.391007024598529 -s 3 -d 5 -p rtProtoLS -e 100 -c 0 -i 57 -a 0 -x {3.1 5.2 -1 ------- null}
h -t 0.391007024598529 -s 3 -d 5 -p rtProtoLS -e 100 -c 0 -i 57 -a 0 -x {3.1 5.2 -1 ------- null}
+ -t 0.399577726796073 -s 5 -d 3 -p rtProtoLS -e 100 -c 0 -i 58 -a 0 -x {5.2 3.1 -1 ------- null}
- -t 0.399577726796073 -s 5 -d 3 -p rtProtoLS -e 100 -c 0 -i 58 -a 0 -x {5.2 3.1 -1 ------- null}
h -t 0.399577726796073 -s 5 -d 3 -p rtProtoLS -e 100 -c 0 -i 58 -a 0 -x {5.2 3.1 -1 ------- null}
- -t 0.402426666666667 -s 3 -d 4 -p cbr -e 24 -c 2 -i 38 -a 2 -x {0.0 4.0 7 ------- null}
h -t 0.402426666666667 -s 3 -d 4 -p cbr -e 24 -c 2 -i 38 -a 2 -x {0.0 4.0 -1 ------- null}
- -t 0.402810666666667 -s 3 -d 4 -p rtProtoLS -e 100 -c 0 -i 56 -a 0 -x {3.1 4.2 -1 ------- null}
h -t 0.402810666666667 -s 3 -d 4 -p rtProtoLS -e 100 -c 0 -i 56 -a 0 -x {3.1 4.2 -1 ------- null}
+ -t 0.4096 -s 0 -d 2 -p cbr -e 1000 -c 2 -i 59 -a 2 -x {0.0 4.0 10 ------- null}
- -t 0.4096 -s 0 -d 2 -p cbr -e 1000 -c 2 -i 59 -a 2 -x {0.0 4.0 10 ------- null}
h -t 0.4096 -s 0 -d 2 -p cbr -e 1000 -c 2 -i 59 -a 2 -x {0.0 4.0 -1 ------- null}
+ -t 0.4096 -s 0 -d 2 -p cbr -e 24 -c 2 -i 60 -a 2 -x {0.0 4.0 11 ------- null}
- -t 0.4136 -s 0 -d 2 -p cbr -e 24 -c 2 -i 60 -a 2 -x {0.0 4.0 11 ------- null}
h -t 0.4136 -s 0 -d 2 -p cbr -e 24 -c 2 -i 60 -a 2 -x {0.0 4.0 -1 ------- null}
r -t 0.4236 -s 0 -d 2 -p cbr -e 1000 -c 2 -i 59 -a 2 -x {0.0 4.0 10 ------- null}
+ -t 0.4236 -s 2 -d 3 -p cbr -e 1000 -c 2 -i 59 -a 2 -x {0.0 4.0 10 ------- null}
- -t 0.4236 -s 2 -d 3 -p cbr -e 1000 -c 2 -i 59 -a 2 -x {0.0 4.0 10 ------- null}
h -t 0.4236 -s 2 -d 3 -p cbr -e 1000 -c 2 -i 59 -a 2 -x {0.0 4.0 -1 ------- null}
r -t 0.423696 -s 0 -d 2 -p cbr -e 24 -c 2 -i 60 -a 2 -x {0.0 4.0 11 ------- null}
+ -t 0.423696 -s 2 -d 3 -p cbr -e 24 -c 2 -i 60 -a 2 -x {0.0 4.0 11 ------- null}
r -t 0.432607024598529 -s 3 -d 5 -p rtProtoLS -e 100 -c 0 -i 57 -a 0 -x {3.1 5.2 -1 ------- null}
+ -t 0.432607024598529 -s 5 -d 3 -p rtProtoLS -e 20 -c 0 -i 61 -a 0 -x {5.2 3.1 -1 ------- null}
- -t 0.432607024598529 -s 5 -d 3 -p rtProtoLS -e 20 -c 0 -i 61 -a 0 -x {5.2 3.1 -1 ------- null}
h -t 0.432607024598529 -s 5 -d 3 -p rtProtoLS -e 20 -c 0 -i 61 -a 0 -x {5.2 3.1 -1 ------- null}
r -t 0.441177726796073 -s 5 -d 3 -p rtProtoLS -e 100 -c 0 -i 58 -a 0 -x {5.2 3.1 -1 ------- null}
+ -t 0.441177726796073 -s 3 -d 5 -p rtProtoLS -e 20 -c 0 -i 62 -a 0 -x {3.1 5.2 -1 ------- null}
- -t 0.441177726796073 -s 3 -d 5 -p rtProtoLS -e 20 -c 0 -i 62 -a 0 -x {3.1 5.2 -1 ------- null}
h -t 0.441177726796073 -s 3 -d 5 -p rtProtoLS -e 20 -c 0 -i 62 -a 0 -x {3.1 5.2 -1 ------- null}
+ -t 0.441177726796073 -s 3 -d 2 -p rtProtoLS -e 100 -c 0 -i 63 -a 0 -x {3.1 2.1 -1 ------- null}
- -t 0.441177726796073 -s 3 -d 2 -p rtProtoLS -e 100 -c 0 -i 63 -a 0 -x {3.1 2.1 -1 ------- null}
h -t 0.441177726796073 -s 3 -d 2 -p rtProtoLS -e 100 -c 0 -i 63 -a 0 -x {3.1 2.1 -1 ------- null}
+ -t 0.441177726796073 -s 3 -d 4 -p rtProtoLS -e 100 -c 0 -i 64 -a 0 -x {3.1 4.2 -1 ------- null}
- -t 0.441177726796073 -s 3 -d 4 -p rtProtoLS -e 100 -c 0 -i 64 -a 0 -x {3.1 4.2 -1 ------- null}
h -t 0.441177726796073 -s 3 -d 4 -p rtProtoLS -e 100 -c 0 -i 64 -a 0 -x {3.1 4.2 -1 ------- null}
r -t 0.442426666666667 -s 3 -d 4 -p cbr -e 1000 -c 2 -i 37 -a 2 -x {0.0 4.0 6 ------- null}
r -t 0.442810666666667 -s 3 -d 4 -p cbr -e 24 -c 2 -i 38 -a 2 -x {0.0 4.0 7 ------- null}
r -t 0.444410666666667 -s 3 -d 4 -p rtProtoLS -e 100 -c 0 -i 56 -a 0 -x {3.1 4.2 -1 ------- null}
+ -t 0.444410666666667 -s 4 -d 3 -p rtProtoLS -e 20 -c 0 -i 65 -a 0 -x {4.2 3.1 -1 ------- null}
- -t 0.444410666666667 -s 4 -d 3 -p rtProtoLS -e 20 -c 0 -i 65 -a 0 -x {4.2 3.1 -1 ------- null}
h -t 0.444410666666667 -s 4 -d 3 -p rtProtoLS -e 20 -c 0 -i 65 -a 0 -x {4.2 3.1 -1 ------- null}
- -t 0.450266666666667 -s 2 -d 3 -p cbr -e 24 -c 2 -i 60 -a 2 -x {0.0 4.0 11 ------- null}
h -t 0.450266666666667 -s 2 -d 3 -p cbr -e 24 -c 2 -i 60 -a 2 -x {0.0 4.0 -1 ------- null}
r -t 0.468346666666667 -s 2 -d 3 -p cbr -e 1000 -c 2 -i 48 -a 2 -x {0.0 4.0 8 ------- null}
+ -t 0.468346666666667 -s 3 -d 4 -p cbr -e 1000 -c 2 -i 48 -a 2 -x {0.0 4.0 8 ------- null}
- -t 0.468346666666667 -s 3 -d 4 -p cbr -e 1000 -c 2 -i 48 -a 2 -x {0.0 4.0 8 ------- null}
h -t 0.468346666666667 -s 3 -d 4 -p cbr -e 1000 -c 2 -i 48 -a 2 -x {0.0 4.0 -1 ------- null}
r -t 0.468986666666667 -s 2 -d 3 -p cbr -e 24 -c 2 -i 49 -a 2 -x {0.0 4.0 9 ------- null}
+ -t 0.468986666666667 -s 3 -d 4 -p cbr -e 24 -c 2 -i 49 -a 2 -x {0.0 4.0 9 ------- null}
r -t 0.46952 -s 2 -d 3 -p rtProtoLS -e 20 -c 0 -i 50 -a 0 -x {2.1 3.1 -1 ------- null}
r -t 0.472927024598529 -s 5 -d 3 -p rtProtoLS -e 20 -c 0 -i 61 -a 0 -x {5.2 3.1 -1 ------- null}
r -t 0.481497726796073 -s 3 -d 5 -p rtProtoLS -e 20 -c 0 -i 62 -a 0 -x {3.1 5.2 -1 ------- null}
r -t 0.482777726796073 -s 3 -d 4 -p rtProtoLS -e 100 -c 0 -i 64 -a 0 -x {3.1 4.2 -1 ------- null}
+ -t 0.482777726796073 -s 4 -d 3 -p rtProtoLS -e 20 -c 0 -i 66 -a 0 -x {4.2 3.1 -1 ------- null}
- -t 0.482777726796073 -s 4 -d 3 -p rtProtoLS -e 20 -c 0 -i 66 -a 0 -x {4.2 3.1 -1 ------- null}
h -t 0.482777726796073 -s 4 -d 3 -p rtProtoLS -e 20 -c 0 -i 66 -a 0 -x {4.2 3.1 -1 ------- null}
- -t 0.484346666666667 -s 3 -d 4 -p cbr -e 24 -c 2 -i 49 -a 2 -x {0.0 4.0 9 ------- null}
h -t 0.484346666666667 -s 3 -d 4 -p cbr -e 24 -c 2 -i 49 -a 2 -x {0.0 4.0 -1 ------- null}
r -t 0.484730666666667 -s 4 -d 3 -p rtProtoLS -e 20 -c 0 -i 65 -a 0 -x {4.2 3.1 -1 ------- null}
+ -t 0.49152 -s 0 -d 2 -p cbr -e 1000 -c 2 -i 67 -a 2 -x {0.0 4.0 12 ------- null}
- -t 0.49152 -s 0 -d 2 -p cbr -e 1000 -c 2 -i 67 -a 2 -x {0.0 4.0 12 ------- null}
h -t 0.49152 -s 0 -d 2 -p cbr -e 1000 -c 2 -i 67 -a 2 -x {0.0 4.0 -1 ------- null}
+ -t 0.49152 -s 0 -d 2 -p cbr -e 24 -c 2 -i 68 -a 2 -x {0.0 4.0 13 ------- null}
r -t 0.491540357931862 -s 3 -d 2 -p rtProtoLS -e 20 -c 0 -i 55 -a 0 -x {3.1 2.1 -1 ------- null}
- -t 0.49552 -s 0 -d 2 -p cbr -e 24 -c 2 -i 68 -a 2 -x {0.0 4.0 13 ------- null}
h -t 0.49552 -s 0 -d 2 -p cbr -e 24 -c 2 -i 68 -a 2 -x {0.0 4.0 -1 ------- null}
r -t 0.50552 -s 0 -d 2 -p cbr -e 1000 -c 2 -i 67 -a 2 -x {0.0 4.0 12 ------- null}
+ -t 0.50552 -s 2 -d 3 -p cbr -e 1000 -c 2 -i 67 -a 2 -x {0.0 4.0 12 ------- null}