+ 0 2 6 cbr 210 ------- 2 2.0 6.0 0 0
- 0 2 6 cbr 210 ------- 2 2.0 6.0 0 0
+ 0 3 2 cbr 210 ------- 3 3.0 9.0 0 1
- 0 3 2 cbr 210 ------- 3 3.0 9.0 0 1
+ 0 0 2 tcp 40 ------- 0 0.0 8.0 0 2
- 0 0 2 tcp 40 ------- 0 0.0 8.0 0 2
+ 0 1 2 tcp 40 ------- 1 1.0 7.0 0 3
- 0 1 2 tcp 40 ------- 1 1.0 7.0 0 3
r 0.002064 0 2 tcp 40 ------- 0 0.0 8.0 0 2
+ 0.002064 2 6 tcp 40 ------- 0 0.0 8.0 0 2
- 0.002064 2 6 tcp 40 ------- 0 0.0 8.0 0 2
r 0.002064 1 2 tcp 40 ------- 1 1.0 7.0 0 3
+ 0.002064 2 6 tcp 40 ------- 1 1.0 7.0 0 3
- 0.002128 2 6 tcp 40 ------- 1 1.0 7.0 0 3
r 0.002336 2 6 cbr 210 ------- 2 2.0 6.0 0 0
r 0.002336 3 2 cbr 210 ------- 3 3.0 9.0 0 1
+ 0.002336 2 6 cbr 210 ------- 3 3.0 9.0 0 1
- 0.002336 2 6 cbr 210 ------- 3 3.0 9.0 0 1
+ 0.00375 2 6 cbr 210 ------- 2 2.0 6.0 1 4
- 0.00375 2 6 cbr 210 ------- 2 2.0 6.0 1 4
+ 0.00375 3 2 cbr 210 ------- 3 3.0 9.0 1 5
- 0.00375 3 2 cbr 210 ------- 3 3.0 9.0 1 5
r 0.004128 2 6 tcp 40 ------- 0 0.0 8.0 0 2
+ 0.004128 6 8 tcp 40 ------- 0 0.0 8.0 0 2
- 0.004128 6 8 tcp 40 ------- 0 0.0 8.0 0 2
r 0.004192 2 6 tcp 40 ------- 1 1.0 7.0 0 3
+ 0.004192 6 7 tcp 40 ------- 1 1.0 7.0 0 3
- 0.004192 6 7 tcp 40 ------- 1 1.0 7.0 0 3
r 0.004672 2 6 cbr 210 ------- 3 3.0 9.0 0 1
+ 0.004672 6 8 cbr 210 ------- 3 3.0 9.0 0 1
- 0.004672 6 8 cbr 210 ------- 3 3.0 9.0 0 1
r 0.006086 2 6 cbr 210 ------- 2 2.0 6.0 1 4
r 0.006086 3 2 cbr 210 ------- 3 3.0 9.0 1 5
+ 0.006086 2 6 cbr 210 ------- 3 3.0 9.0 1 5
- 0.006086 2 6 cbr 210 ------- 3 3.0 9.0 1 5
r 0.006192 6 8 tcp 40 ------- 0 0.0 8.0 0 2
+ 0.006192 8 6 ack 40 ------- 0 8.0 0.0 0 6
- 0.006192 8 6 ack 40 ------- 0 8.0 0.0 0 6
r 0.006256 6 7 tcp 40 ------- 1 1.0 7.0 0 3
+ 0.006256 7 6 ack 40 ------- 1 7.0 1.0 0 7
- 0.006256 7 6 ack 40 ------- 1 7.0 1.0 0 7
r 0.007008 6 8 cbr 210 ------- 3 3.0 9.0 0 1
+ 0.007008 8 9 cbr 210 ------- 3 3.0 9.0 0 1
- 0.007008 8 9 cbr 210 ------- 3 3.0 9.0 0 1
+ 0.0075 2 6 cbr 210 ------- 2 2.0 6.0 2 8
- 0.0075 2 6 cbr 210 ------- 2 2.0 6.0 2 8
+ 0.0075 3 2 cbr 210 ------- 3 3.0 9.0 2 9
- 0.0075 3 2 cbr 210 ------- 3 3.0 9.0 2 9
r 0.008256 8 6 ack 40 ------- 0 8.0 0.0 0 6
+ 0.008256 6 2 ack 40 ------- 0 8.0 0.0 0 6
- 0.008256 6 2 ack 40 ------- 0 8.0 0.0 0 6
r 0.00832 7 6 ack 40 ------- 1 7.0 1.0 0 7
+ 0.00832 6 2 ack 40 ------- 1 7.0 1.0 0 7
- 0.00832 6 2 ack 40 ------- 1 7.0 1.0 0 7
r 0.008422 2 6 cbr 210 ------- 3 3.0 9.0 1 5
+ 0.008422 6 8 cbr 210 ------- 3 3.0 9.0 1 5
- 0.008422 6 8 cbr 210 ------- 3 3.0 9.0 1 5
r 0.009344 8 9 cbr 210 ------- 3 3.0 9.0 0 1
r 0.009836 2 6 cbr 210 ------- 2 2.0 6.0 2 8
r 0.009836 3 2 cbr 210 ------- 3 3.0 9.0 2 9
+ 0.009836 2 6 cbr 210 ------- 3 3.0 9.0 2 9
- 0.009836 2 6 cbr 210 ------- 3 3.0 9.0 2 9
r 0.01032 6 2 ack 40 ------- 0 8.0 0.0 0 6
+ 0.01032 2 0 ack 40 ------- 0 8.0 0.0 0 6
- 0.01032 2 0 ack 40 ------- 0 8.0 0.0 0 6
r 0.010384 6 2 ack 40 ------- 1 7.0 1.0 0 7
+ 0.010384 2 1 ack 40 ------- 1 7.0 1.0 0 7
- 0.010384 2 1 ack 40 ------- 1 7.0 1.0 0 7
r 0.010758 6 8 cbr 210 ------- 3 3.0 9.0 1 5
+ 0.010758 8 9 cbr 210 ------- 3 3.0 9.0 1 5
- 0.010758 8 9 cbr 210 ------- 3 3.0 9.0 1 5
+ 0.01125 2 6 cbr 210 ------- 2 2.0 6.0 3 10
- 0.01125 2 6 cbr 210 ------- 2 2.0 6.0 3 10
+ 0.01125 3 2 cbr 210 ------- 3 3.0 9.0 3 11
- 0.01125 3 2 cbr 210 ------- 3 3.0 9.0 3 11
r 0.012172 2 6 cbr 210 ------- 3 3.0 9.0 2 9
+ 0.012172 6 8 cbr 210 ------- 3 3.0 9.0 2 9
- 0.012172 6 8 cbr 210 ------- 3 3.0 9.0 2 9
r 0.012384 2 0 ack 40 ------- 0 8.0 0.0 0 6
+ 0.012384 0 2 tcp 1040 ------- 0 0.0 8.0 1 12
- 0.012384 0 2 tcp 1040 ------- 0 0.0 8.0 1 12
+ 0.012384 0 2 tcp 1040 ------- 0 0.0 8.0 2 13
r 0.012448 2 1 ack 40 ------- 1 7.0 1.0 0 7
+ 0.012448 1 2 tcp 1040 ------- 1 1.0 7.0 1 14
- 0.012448 1 2 tcp 1040 ------- 1 1.0 7.0 1 14
+ 0.012448 1 2 tcp 1040 ------- 1 1.0 7.0 2 15
r 0.013094 8 9 cbr 210 ------- 3 3.0 9.0 1 5
r 0.013586 2 6 cbr 210 ------- 2 2.0 6.0 3 10
r 0.013586 3 2 cbr 210 ------- 3 3.0 9.0 3 11
+ 0.013586 2 6 cbr 210 ------- 3 3.0 9.0 3 11
- 0.013586 2 6 cbr 210 ------- 3 3.0 9.0 3 11
- 0.014048 0 2 tcp 1040 ------- 0 0.0 8.0 2 13
- 0.014112 1 2 tcp 1040 ------- 1 1.0 7.0 2 15
r 0.014508 6 8 cbr 210 ------- 3 3.0 9.0 2 9
+ 0.014508 8 9 cbr 210 ------- 3 3.0 9.0 2 9
- 0.014508 8 9 cbr 210 ------- 3 3.0 9.0 2 9
+ 0.015 2 6 cbr 210 ------- 2 2.0 6.0 4 16
- 0.015 2 6 cbr 210 ------- 2 2.0 6.0 4 16
+ 0.015 3 2 cbr 210 ------- 3 3.0 9.0 4 17
- 0.015 3 2 cbr 210 ------- 3 3.0 9.0 4 17
r 0.015922 2 6 cbr 210 ------- 3 3.0 9.0 3 11
+ 0.015922 6 8 cbr 210 ------- 3 3.0 9.0 3 11
- 0.015922 6 8 cbr 210 ------- 3 3.0 9.0 3 11
r 0.016048 0 2 tcp 1040 ------- 0 0.0 8.0 1 12
+ 0.016048 2 6 tcp 1040 ------- 0 0.0 8.0 1 12
- 0.016048 2 6 tcp 1040 ------- 0 0.0 8.0 1 12
r 0.016112 1 2 tcp 1040 ------- 1 1.0 7.0 1 14
+ 0.016112 2 6 tcp 1040 ------- 1 1.0 7.0 1 14
r 0.016844 8 9 cbr 210 ------- 3 3.0 9.0 2 9
r 0.017336 2 6 cbr 210 ------- 2 2.0 6.0 4 16
r 0.017336 3 2 cbr 210 ------- 3 3.0 9.0 4 17
+ 0.017336 2 6 cbr 210 ------- 3 3.0 9.0 4 17
r 0.017712 0 2 tcp 1040 ------- 0 0.0 8.0 2 13
+ 0.017712 2 6 tcp 1040 ------- 0 0.0 8.0 2 13
- 0.017712 2 6 tcp 1040 ------- 1 1.0 7.0 1 14
r 0.017776 1 2 tcp 1040 ------- 1 1.0 7.0 2 15
+ 0.017776 2 6 tcp 1040 ------- 1 1.0 7.0 2 15
r 0.018258 6 8 cbr 210 ------- 3 3.0 9.0 3 11
+ 0.018258 8 9 cbr 210 ------- 3 3.0 9.0 3 11
- 0.018258 8 9 cbr 210 ------- 3 3.0 9.0 3 11
+ 0.01875 2 6 cbr 210 ------- 2 2.0 6.0 5 18
+ 0.01875 3 2 cbr 210 ------- 3 3.0 9.0 5 19
- 0.01875 3 2 cbr 210 ------- 3 3.0 9.0 5 19
- 0.019376 2 6 cbr 210 ------- 3 3.0 9.0 4 17
- 0.019712 2 6 tcp 1040 ------- 0 0.0 8.0 2 13
r 0.019712 2 6 tcp 1040 ------- 0 0.0 8.0 1 12
+ 0.019712 6 8 tcp 1040 ------- 0 0.0 8.0 1 12
- 0.019712 6 8 tcp 1040 ------- 0 0.0 8.0 1 12
r 0.020594 8 9 cbr 210 ------- 3 3.0 9.0 3 11
r 0.021086 3 2 cbr 210 ------- 3 3.0 9.0 5 19
+ 0.021086 2 6 cbr 210 ------- 3 3.0 9.0 5 19
- 0.021376 2 6 tcp 1040 ------- 1 1.0 7.0 2 15
r 0.021376 2 6 tcp 1040 ------- 1 1.0 7.0 1 14
+ 0.021376 6 7 tcp 1040 ------- 1 1.0 7.0 1 14
- 0.021376 6 7 tcp 1040 ------- 1 1.0 7.0 1 14
r 0.021712 2 6 cbr 210 ------- 3 3.0 9.0 4 17
+ 0.021712 6 8 cbr 210 ------- 3 3.0 9.0 4 17
- 0.021712 6 8 cbr 210 ------- 3 3.0 9.0 4 17
+ 0.0225 2 6 cbr 210 ------- 2 2.0 6.0 6 20
+ 0.0225 3 2 cbr 210 ------- 3 3.0 9.0 6 21
- 0.0225 3 2 cbr 210 ------- 3 3.0 9.0 6 21
- 0.02304 2 6 cbr 210 ------- 2 2.0 6.0 5 18
- 0.023376 2 6 cbr 210 ------- 3 3.0 9.0 5 19
r 0.023376 2 6 tcp 1040 ------- 0 0.0 8.0 2 13
+ 0.023376 6 8 tcp 1040 ------- 0 0.0 8.0 2 13
- 0.023376 6 8 tcp 1040 ------- 0 0.0 8.0 2 13
r 0.023376 6 8 tcp 1040 ------- 0 0.0 8.0 1 12
+ 0.023376 8 6 ack 40 ------- 0 8.0 0.0 1 22
- 0.023376 8 6 ack 40 ------- 0 8.0 0.0 1 22
- 0.023712 2 6 cbr 210 ------- 2 2.0 6.0 6 20
r 0.024048 6 8 cbr 210 ------- 3 3.0 9.0 4 17
+ 0.024048 8 9 cbr 210 ------- 3 3.0 9.0 4 17
- 0.024048 8 9 cbr 210 ------- 3 3.0 9.0 4 17
r 0.024836 3 2 cbr 210 ------- 3 3.0 9.0 6 21
+ 0.024836 2 6 cbr 210 ------- 3 3.0 9.0 6 21
- 0.024836 2 6 cbr 210 ------- 3 3.0 9.0 6 21
r 0.02504 2 6 tcp 1040 ------- 1 1.0 7.0 2 15
+ 0.02504 6 7 tcp 1040 ------- 1 1.0 7.0 2 15
- 0.02504 6 7 tcp 1040 ------- 1 1.0 7.0 2 15
r 0.02504 6 7 tcp 1040 ------- 1 1.0 7.0 1 14
r 0.025376 2 6 cbr 210 ------- 2 2.0 6.0 5 18
r 0.02544 8 6 ack 40 ------- 0 8.0 0.0 1 22
+ 0.02544 6 2 ack 40 ------- 0 8.0 0.0 1 22
- 0.02544 6 2 ack 40 ------- 0 8.0 0.0 1 22
r 0.025712 2 6 cbr 210 ------- 3 3.0 9.0 5 19
+ 0.025712 6 8 cbr 210 ------- 3 3.0 9.0 5 19
- 0.025712 6 8 cbr 210 ------- 3 3.0 9.0 5 19
r 0.026048 2 6 cbr 210 ------- 2 2.0 6.0 6 20
+ 0.02625 2 6 cbr 210 ------- 2 2.0 6.0 7 23
- 0.02625 2 6 cbr 210 ------- 2 2.0 6.0 7 23
+ 0.02625 3 2 cbr 210 ------- 3 3.0 9.0 7 24
- 0.02625 3 2 cbr 210 ------- 3 3.0 9.0 7 24
r 0.026384 8 9 cbr 210 ------- 3 3.0 9.0 4 17
r 0.02704 6 8 tcp 1040 ------- 0 0.0 8.0 2 13
+ 0.02704 8 6 ack 40 ------- 0 8.0 0.0 2 25
- 0.02704 8 6 ack 40 ------- 0 8.0 0.0 2 25
r 0.027172 2 6 cbr 210 ------- 3 3.0 9.0 6 21
+ 0.027172 6 8 cbr 210 ------- 3 3.0 9.0 6 21
- 0.027172 6 8 cbr 210 ------- 3 3.0 9.0 6 21
r 0.027504 6 2 ack 40 ------- 0 8.0 0.0 1 22
+ 0.027504 2 0 ack 40 ------- 0 8.0 0.0 1 22
- 0.027504 2 0 ack 40 ------- 0 8.0 0.0 1 22
r 0.028048 6 8 cbr 210 ------- 3 3.0 9.0 5 19
+ 0.028048 8 9 cbr 210 ------- 3 3.0 9.0 5 19
- 0.028048 8 9 cbr 210 ------- 3 3.0 9.0 5 19
r 0.028586 2 6 cbr 210 ------- 2 2.0 6.0 7 23
r 0.028586 3 2 cbr 210 ------- 3 3.0 9.0 7 24
+ 0.028586 2 6 cbr 210 ------- 3 3.0 9.0 7 24
- 0.028586 2 6 cbr 210 ------- 3 3.0 9.0 7 24
r 0.028704 6 7 tcp 1040 ------- 1 1.0 7.0 2 15
+ 0.028704 7 6 ack 40 ------- 1 7.0 1.0 2 26
- 0.028704 7 6 ack 40 ------- 1 7.0 1.0 2 26
r 0.029104 8 6 ack 40 ------- 0 8.0 0.0 2 25
+ 0.029104 6 2 ack 40 ------- 0 8.0 0.0 2 25
- 0.029104 6 2 ack 40 ------- 0 8.0 0.0 2 25
r 0.029508 6 8 cbr 210 ------- 3 3.0 9.0 6 21
+ 0.029508 8 9 cbr 210 ------- 3 3.0 9.0 6 21
- 0.029508 8 9 cbr 210 ------- 3 3.0 9.0 6 21
r 0.029568 2 0 ack 40 ------- 0 8.0 0.0 1 22
+ 0.029568 0 2 tcp 1040 ------- 0 0.0 8.0 3 27
- 0.029568 0 2 tcp 1040 ------- 0 0.0 8.0 3 27
+ 0.029568 0 2 tcp 1040 ------- 0 0.0 8.0 4 28
+ 0.03 2 6 cbr 210 ------- 2 2.0 6.0 8 29
- 0.03 2 6 cbr 210 ------- 2 2.0 6.0 8 29
+ 0.03 3 2 cbr 210 ------- 3 3.0 9.0 8 30
- 0.03 3 2 cbr 210 ------- 3 3.0 9.0 8 30
r 0.030384 8 9 cbr 210 ------- 3 3.0 9.0 5 19
r 0.030768 7 6 ack 40 ------- 1 7.0 1.0 2 26
+ 0.030768 6 2 ack 40 ------- 1 7.0 1.0 2 26
- 0.030768 6 2 ack 40 ------- 1 7.0 1.0 2 26
r 0.030922 2 6 cbr 210 ------- 3 3.0 9.0 7 24
+ 0.030922 6 8 cbr 210 ------- 3 3.0 9.0 7 24
- 0.030922 6 8 cbr 210 ------- 3 3.0 9.0 7 24
r 0.031168 6 2 ack 40 ------- 0 8.0 0.0 2 25
+ 0.031168 2 0 ack 40 ------- 0 8.0 0.0 2 25
- 0.031168 2 0 ack 40 ------- 0 8.0 0.0 2 25
- 0.031232 0 2 tcp 1040 ------- 0 0.0 8.0 4 28
r 0.031844 8 9 cbr 210 ------- 3 3.0 9.0 6 21
r 0.032336 2 6 cbr 210 ------- 2 2.0 6.0 8 29
r 0.032336 3 2 cbr 210 ------- 3 3.0 9.0 8 30
+ 0.032336 2 6 cbr 210 ------- 3 3.0 9.0 8 30
- 0.032336 2 6 cbr 210 ------- 3 3.0 9.0 8 30
r 0.032832 6 2 ack 40 ------- 1 7.0 1.0 2 26
+ 0.032832 2 1 ack 40 ------- 1 7.0 1.0 2 26
- 0.032832 2 1 ack 40 ------- 1 7.0 1.0 2 26
r 0.033232 0 2 tcp 1040 ------- 0 0.0 8.0 3 27
+ 0.033232 2 6 tcp 1040 ------- 0 0.0 8.0 3 27
- 0.033232 2 6 tcp 1040 ------- 0 0.0 8.0 3 27
r 0.033232 2 0 ack 40 ------- 0 8.0 0.0 2 25
+ 0.033232 0 2 tcp 1040 ------- 0 0.0 8.0 5 31
- 0.033232 0 2 tcp 1040 ------- 0 0.0 8.0 5 31
+ 0.033232 0 2 tcp 1040 ------- 0 0.0 8.0 6 32
r 0.033258 6 8 cbr 210 ------- 3 3.0 9.0 7 24
+ 0.033258 8 9 cbr 210 ------- 3 3.0 9.0 7 24
- 0.033258 8 9 cbr 210 ------- 3 3.0 9.0 7 24
+ 0.03375 2 6 cbr 210 ------- 2 2.0 6.0 9 33
+ 0.03375 3 2 cbr 210 ------- 3 3.0 9.0 9 34
- 0.03375 3 2 cbr 210 ------- 3 3.0 9.0 9 34
r 0.034672 2 6 cbr 210 ------- 3 3.0 9.0 8 30
+ 0.034672 6 8 cbr 210 ------- 3 3.0 9.0 8 30
- 0.034672 6 8 cbr 210 ------- 3 3.0 9.0 8 30
r 0.034896 0 2 tcp 1040 ------- 0 0.0 8.0 4 28
+ 0.034896 2 6 tcp 1040 ------- 0 0.0 8.0 4 28
r 0.034896 2 1 ack 40 ------- 1 7.0 1.0 2 26
+ 0.034896 1 2 tcp 1040 ------- 1 1.0 7.0 3 35
- 0.034896 1 2 tcp 1040 ------- 1 1.0 7.0 3 35
+ 0.034896 1 2 tcp 1040 ------- 1 1.0 7.0 4 36
+ 0.034896 1 2 tcp 1040 ------- 1 1.0 7.0 5 37
- 0.034896 2 6 cbr 210 ------- 2 2.0 6.0 9 33
- 0.034896 0 2 tcp 1040 ------- 0 0.0 8.0 6 32
- 0.035232 2 6 tcp 1040 ------- 0 0.0 8.0 4 28
r 0.035594 8 9 cbr 210 ------- 3 3.0 9.0 7 24
r 0.036086 3 2 cbr 210 ------- 3 3.0 9.0 9 34
+ 0.036086 2 6 cbr 210 ------- 3 3.0 9.0 9 34
- 0.03656 1 2 tcp 1040 ------- 1 1.0 7.0 4 36
r 0.036896 2 6 tcp 1040 ------- 0 0.0 8.0 3 27
+ 0.036896 6 8 tcp 1040 ------- 0 0.0 8.0 3 27
- 0.036896 6 8 tcp 1040 ------- 0 0.0 8.0 3 27
r 0.036896 0 2 tcp 1040 ------- 0 0.0 8.0 5 31
+ 0.036896 2 6 tcp 1040 ------- 0 0.0 8.0 5 31
- 0.036896 2 6 cbr 210 ------- 3 3.0 9.0 9 34
r 0.037008 6 8 cbr 210 ------- 3 3.0 9.0 8 30
+ 0.037008 8 9 cbr 210 ------- 3 3.0 9.0 8 30
- 0.037008 8 9 cbr 210 ------- 3 3.0 9.0 8 30
r 0.037232 2 6 cbr 210 ------- 2 2.0 6.0 9 33
- 0.037232 2 6 tcp 1040 ------- 0 0.0 8.0 5 31
+ 0.0375 2 6 cbr 210 ------- 2 2.0 6.0 10 38
+ 0.0375 3 2 cbr 210 ------- 3 3.0 9.0 10 39
- 0.0375 3 2 cbr 210 ------- 3 3.0 9.0 10 39
- 0.038224 1 2 tcp 1040 ------- 1 1.0 7.0 5 37
r 0.03856 1 2 tcp 1040 ------- 1 1.0 7.0 3 35
+ 0.03856 2 6 tcp 1040 ------- 1 1.0 7.0 3 35
r 0.03856 0 2 tcp 1040 ------- 0 0.0 8.0 6 32
+ 0.03856 2 6 tcp 1040 ------- 0 0.0 8.0 6 32
r 0.038896 2 6 tcp 1040 ------- 0 0.0 8.0 4 28
+ 0.038896 6 8 tcp 1040 ------- 0 0.0 8.0 4 28
- 0.038896 6 8 tcp 1040 ------- 0 0.0 8.0 4 28
- 0.038896 2 6 cbr 210 ------- 2 2.0 6.0 10 38
r 0.039232 2 6 cbr 210 ------- 3 3.0 9.0 9 34
+ 0.039232 6 8 cbr 210 ------- 3 3.0 9.0 9 34
- 0.039232 2 6 tcp 1040 ------- 1 1.0 7.0 3 35
r 0.039344 8 9 cbr 210 ------- 3 3.0 9.0 8 30
r 0.039836 3 2 cbr 210 ------- 3 3.0 9.0 10 39
+ 0.039836 2 6 cbr 210 ------- 3 3.0 9.0 10 39
r 0.040224 1 2 tcp 1040 ------- 1 1.0 7.0 4 36
+ 0.040224 2 6 tcp 1040 ------- 1 1.0 7.0 4 36
r 0.04056 6 8 tcp 1040 ------- 0 0.0 8.0 3 27
+ 0.04056 8 6 ack 40 ------- 0 8.0 0.0 3 40
- 0.04056 8 6 ack 40 ------- 0 8.0 0.0 3 40
- 0.04056 6 8 cbr 210 ------- 3 3.0 9.0 9 34
r 0.040896 2 6 tcp 1040 ------- 0 0.0 8.0 5 31
+ 0.040896 6 8 tcp 1040 ------- 0 0.0 8.0 5 31
- 0.040896 2 6 tcp 1040 ------- 0 0.0 8.0 6 32
- 0.040896 6 8 tcp 1040 ------- 0 0.0 8.0 5 31
r 0.041232 2 6 cbr 210 ------- 2 2.0 6.0 10 38
+ 0.04125 2 6 cbr 210 ------- 2 2.0 6.0 11 41
+ 0.04125 3 2 cbr 210 ------- 3 3.0 9.0 11 42
- 0.04125 3 2 cbr 210 ------- 3 3.0 9.0 11 42
r 0.041888 1 2 tcp 1040 ------- 1 1.0 7.0 5 37
+ 0.041888 2 6 tcp 1040 ------- 1 1.0 7.0 5 37
r 0.04256 6 8 tcp 1040 ------- 0 0.0 8.0 4 28
+ 0.04256 8 6 ack 40 ------- 0 8.0 0.0 4 43
- 0.04256 8 6 ack 40 ------- 0 8.0 0.0 4 43
- 0.04256 2 6 cbr 210 ------- 3 3.0 9.0 10 39
r 0.042624 8 6 ack 40 ------- 0 8.0 0.0 3 40
+ 0.042624 6 2 ack 40 ------- 0 8.0 0.0 3 40
- 0.042624 6 2 ack 40 ------- 0 8.0 0.0 3 40
r 0.042896 6 8 cbr 210 ------- 3 3.0 9.0 9 34
+ 0.042896 8 9 cbr 210 ------- 3 3.0 9.0 9 34
- 0.042896 8 9 cbr 210 ------- 3 3.0 9.0 9 34
r 0.042896 2 6 tcp 1040 ------- 1 1.0 7.0 3 35
+ 0.042896 6 7 tcp 1040 ------- 1 1.0 7.0 3 35
- 0.042896 6 7 tcp 1040 ------- 1 1.0 7.0 3 35
- 0.042896 2 6 tcp 1040 ------- 1 1.0 7.0 4 36
r 0.043586 3 2 cbr 210 ------- 3 3.0 9.0 11 42
+ 0.043586 2 6 cbr 210 ------- 3 3.0 9.0 11 42
r 0.04456 2 6 tcp 1040 ------- 0 0.0 8.0 6 32
+ 0.04456 6 8 tcp 1040 ------- 0 0.0 8.0 6 32
- 0.04456 6 8 tcp 1040 ------- 0 0.0 8.0 6 32
r 0.04456 6 8 tcp 1040 ------- 0 0.0 8.0 5 31
+ 0.04456 8 6 ack 40 ------- 0 8.0 0.0 5 44
- 0.04456 8 6 ack 40 ------- 0 8.0 0.0 5 44
- 0.04456 2 6 cbr 210 ------- 2 2.0 6.0 11 41
r 0.044624 8 6 ack 40 ------- 0 8.0 0.0 4 43
+ 0.044624 6 2 ack 40 ------- 0 8.0 0.0 4 43
- 0.044624 6 2 ack 40 ------- 0 8.0 0.0 4 43
r 0.044688 6 2 ack 40 ------- 0 8.0 0.0 3 40
+ 0.044688 2 0 ack 40 ------- 0 8.0 0.0 3 40
- 0.044688 2 0 ack 40 ------- 0 8.0 0.0 3 40
r 0.044896 2 6 cbr 210 ------- 3 3.0 9.0 10 39
+ 0.044896 6 8 cbr 210 ------- 3 3.0 9.0 10 39
- 0.044896 2 6 tcp 1040 ------- 1 1.0 7.0 5 37
+ 0.045 2 6 cbr 210 ------- 2 2.0 6.0 12 45
+ 0.045 3 2 cbr 210 ------- 3 3.0 9.0 12 46
- 0.045 3 2 cbr 210 ------- 3 3.0 9.0 12 46
r 0.045232 8 9 cbr 210 ------- 3 3.0 9.0 9 34
- 0.046224 6 8 cbr 210 ------- 3 3.0 9.0 10 39
r 0.04656 6 7 tcp 1040 ------- 1 1.0 7.0 3 35
r 0.04656 2 6 tcp 1040 ------- 1 1.0 7.0 4 36
+ 0.04656 6 7 tcp 1040 ------- 1 1.0 7.0 4 36
- 0.04656 6 7 tcp 1040 ------- 1 1.0 7.0 4 36
- 0.04656 2 6 cbr 210 ------- 3 3.0 9.0 11 42
r 0.046624 8 6 ack 40 ------- 0 8.0 0.0 5 44
+ 0.046624 6 2 ack 40 ------- 0 8.0 0.0 5 44
- 0.046624 6 2 ack 40 ------- 0 8.0 0.0 5 44
r 0.046688 6 2 ack 40 ------- 0 8.0 0.0 4 43
+ 0.046688 2 0 ack 40 ------- 0 8.0 0.0 4 43
- 0.046688 2 0 ack 40 ------- 0 8.0 0.0 4 43
r 0.046752 2 0 ack 40 ------- 0 8.0 0.0 3 40
+ 0.046752 0 2 tcp 1040 ------- 0 0.0 8.0 7 47
- 0.046752 0 2 tcp 1040 ------- 0 0.0 8.0 7 47
+ 0.046752 0 2 tcp 1040 ------- 0 0.0 8.0 8 48
r 0.046896 2 6 cbr 210 ------- 2 2.0 6.0 11 41
- 0.046896 2 6 cbr 210 ------- 2 2.0 6.0 12 45
r 0.047336 3 2 cbr 210 ------- 3 3.0 9.0 12 46
+ 0.047336 2 6 cbr 210 ------- 3 3.0 9.0 12 46
- 0.047336 2 6 cbr 210 ------- 3 3.0 9.0 12 46
r 0.048224 6 8 tcp 1040 ------- 0 0.0 8.0 6 32
+ 0.048224 8 6 ack 40 ------- 0 8.0 0.0 6 49
- 0.048224 8 6 ack 40 ------- 0 8.0 0.0 6 49
- 0.048416 0 2 tcp 1040 ------- 0 0.0 8.0 8 48
r 0.04856 6 8 cbr 210 ------- 3 3.0 9.0 10 39
+ 0.04856 8 9 cbr 210 ------- 3 3.0 9.0 10 39
- 0.04856 8 9 cbr 210 ------- 3 3.0 9.0 10 39
r 0.04856 2 6 tcp 1040 ------- 1 1.0 7.0 5 37
+ 0.04856 6 7 tcp 1040 ------- 1 1.0 7.0 5 37
- 0.04856 6 7 tcp 1040 ------- 1 1.0 7.0 5 37
r 0.048688 6 2 ack 40 ------- 0 8.0 0.0 5 44
+ 0.048688 2 0 ack 40 ------- 0 8.0 0.0 5 44
- 0.048688 2 0 ack 40 ------- 0 8.0 0.0 5 44
+ 0.04875 2 6 cbr 210 ------- 2 2.0 6.0 13 50
- 0.04875 2 6 cbr 210 ------- 2 2.0 6.0 13 50
+ 0.04875 3 2 cbr 210 ------- 3 3.0 9.0 13 51
- 0.04875 3 2 cbr 210 ------- 3 3.0 9.0 13 51
r 0.048752 2 0 ack 40 ------- 0 8.0 0.0 4 43
+ 0.048752 0 2 tcp 1040 ------- 0 0.0 8.0 9 52
+ 0.048752 0 2 tcp 1040 ------- 0 0.0 8.0 10 53
r 0.048896 2 6 cbr 210 ------- 3 3.0 9.0 11 42
+ 0.048896 6 8 cbr 210 ------- 3 3.0 9.0 11 42
- 0.048896 6 8 cbr 210 ------- 3 3.0 9.0 11 42
r 0.049232 2 6 cbr 210 ------- 2 2.0 6.0 12 45
r 0.049672 2 6 cbr 210 ------- 3 3.0 9.0 12 46
+ 0.049672 6 8 cbr 210 ------- 3 3.0 9.0 12 46
- 0.049672 6 8 cbr 210 ------- 3 3.0 9.0 12 46
- 0.05008 0 2 tcp 1040 ------- 0 0.0 8.0 9 52
r 0.050224 6 7 tcp 1040 ------- 1 1.0 7.0 4 36
+ 0.050224 7 6 ack 40 ------- 1 7.0 1.0 4 54
- 0.050224 7 6 ack 40 ------- 1 7.0 1.0 4 54
r 0.050288 8 6 ack 40 ------- 0 8.0 0.0 6 49
+ 0.050288 6 2 ack 40 ------- 0 8.0 0.0 6 49
- 0.050288 6 2 ack 40 ------- 0 8.0 0.0 6 49
r 0.050416 0 2 tcp 1040 ------- 0 0.0 8.0 7 47
+ 0.050416 2 6 tcp 1040 ------- 0 0.0 8.0 7 47
- 0.050416 2 6 tcp 1040 ------- 0 0.0 8.0 7 47
r 0.050752 2 0 ack 40 ------- 0 8.0 0.0 5 44
+ 0.050752 0 2 tcp 1040 ------- 0 0.0 8.0 11 55
+ 0.050752 0 2 tcp 1040 ------- 0 0.0 8.0 12 56
r 0.050896 8 9 cbr 210 ------- 3 3.0 9.0 10 39
r 0.051086 2 6 cbr 210 ------- 2 2.0 6.0 13 50
r 0.051086 3 2 cbr 210 ------- 3 3.0 9.0 13 51
+ 0.051086 2 6 cbr 210 ------- 3 3.0 9.0 13 51
r 0.051232 6 8 cbr 210 ------- 3 3.0 9.0 11 42
+ 0.051232 8 9 cbr 210 ------- 3 3.0 9.0 11 42
- 0.051232 8 9 cbr 210 ------- 3 3.0 9.0 11 42
- 0.051744 0 2 tcp 1040 ------- 0 0.0 8.0 10 53
r 0.052008 6 8 cbr 210 ------- 3 3.0 9.0 12 46
+ 0.052008 8 9 cbr 210 ------- 3 3.0 9.0 12 46
- 0.052008 8 9 cbr 210 ------- 3 3.0 9.0 12 46
r 0.05208 0 2 tcp 1040 ------- 0 0.0 8.0 8 48
+ 0.05208 2 6 tcp 1040 ------- 0 0.0 8.0 8 48
- 0.05208 2 6 cbr 210 ------- 3 3.0 9.0 13 51
r 0.052224 6 7 tcp 1040 ------- 1 1.0 7.0 5 37
r 0.052288 7 6 ack 40 ------- 1 7.0 1.0 4 54
+ 0.052288 6 2 ack 40 ------- 1 7.0 1.0 4 54
- 0.052288 6 2 ack 40 ------- 1 7.0 1.0 4 54
r 0.052352 6 2 ack 40 ------- 0 8.0 0.0 6 49
+ 0.052352 2 0 ack 40 ------- 0 8.0 0.0 6 49
- 0.052352 2 0 ack 40 ------- 0 8.0 0.0 6 49
- 0.052416 2 6 tcp 1040 ------- 0 0.0 8.0 8 48
+ 0.0525 2 6 cbr 210 ------- 2 2.0 6.0 14 57
+ 0.0525 3 2 cbr 210 ------- 3 3.0 9.0 14 58
- 0.0525 3 2 cbr 210 ------- 3 3.0 9.0 14 58
- 0.053408 0 2 tcp 1040 ------- 0 0.0 8.0 11 55
r 0.053568 8 9 cbr 210 ------- 3 3.0 9.0 11 42
r 0.053744 0 2 tcp 1040 ------- 0 0.0 8.0 9 52
+ 0.053744 2 6 tcp 1040 ------- 0 0.0 8.0 9 52
r 0.05408 2 6 tcp 1040 ------- 0 0.0 8.0 7 47
+ 0.05408 6 8 tcp 1040 ------- 0 0.0 8.0 7 47
- 0.05408 6 8 tcp 1040 ------- 0 0.0 8.0 7 47
- 0.05408 2 6 cbr 210 ------- 2 2.0 6.0 14 57
r 0.054344 8 9 cbr 210 ------- 3 3.0 9.0 12 46
r 0.054352 6 2 ack 40 ------- 1 7.0 1.0 4 54
+ 0.054352 2 1 ack 40 ------- 1 7.0 1.0 4 54
- 0.054352 2 1 ack 40 ------- 1 7.0 1.0 4 54
r 0.054416 2 6 cbr 210 ------- 3 3.0 9.0 13 51
+ 0.054416 6 8 cbr 210 ------- 3 3.0 9.0 13 51
r 0.054416 2 0 ack 40 ------- 0 8.0 0.0 6 49
+ 0.054416 0 2 tcp 1040 ------- 0 0.0 8.0 13 59
+ 0.054416 0 2 tcp 1040 ------- 0 0.0 8.0 14 60
- 0.054416 2 6 tcp 1040 ------- 0 0.0 8.0 9 52
r 0.054836 3 2 cbr 210 ------- 3 3.0 9.0 14 58
+ 0.054836 2 6 cbr 210 ------- 3 3.0 9.0 14 58
- 0.055072 0 2 tcp 1040 ------- 0 0.0 8.0 12 56
r 0.055408 0 2 tcp 1040 ------- 0 0.0 8.0 10 53
+ 0.055408 2 6 tcp 1040 ------- 0 0.0 8.0 10 53
- 0.055744 6 8 cbr 210 ------- 3 3.0 9.0 13 51
r 0.05608 2 6 tcp 1040 ------- 0 0.0 8.0 8 48
+ 0.05608 6 8 tcp 1040 ------- 0 0.0 8.0 8 48
- 0.05608 2 6 cbr 210 ------- 3 3.0 9.0 14 58
- 0.05608 6 8 tcp 1040 ------- 0 0.0 8.0 8 48
+ 0.05625 2 6 cbr 210 ------- 2 2.0 6.0 15 61
+ 0.05625 3 2 cbr 210 ------- 3 3.0 9.0 15 62
- 0.05625 3 2 cbr 210 ------- 3 3.0 9.0 15 62
r 0.056416 2 6 cbr 210 ------- 2 2.0 6.0 14 57
r 0.056416 2 1 ack 40 ------- 1 7.0 1.0 4 54
+ 0.056416 1 2 tcp 1040 ------- 1 1.0 7.0 6 63
- 0.056416 1 2 tcp 1040 ------- 1 1.0 7.0 6 63
+ 0.056416 1 2 tcp 1040 ------- 1 1.0 7.0 7 64
+ 0.056416 1 2 tcp 1040 ------- 1 1.0 7.0 8 65
- 0.056416 2 6 tcp 1040 ------- 0 0.0 8.0 10 53
- 0.056736 0 2 tcp 1040 ------- 0 0.0 8.0 13 59
r 0.057072 0 2 tcp 1040 ------- 0 0.0 8.0 11 55
+ 0.057072 2 6 tcp 1040 ------- 0 0.0 8.0 11 55
r 0.057744 6 8 tcp 1040 ------- 0 0.0 8.0 7 47
+ 0.057744 8 6 ack 40 ------- 0 8.0 0.0 7 66
- 0.057744 8 6 ack 40 ------- 0 8.0 0.0 7 66
r 0.05808 6 8 cbr 210 ------- 3 3.0 9.0 13 51
+ 0.05808 8 9 cbr 210 ------- 3 3.0 9.0 13 51
- 0.05808 8 9 cbr 210 ------- 3 3.0 9.0 13 51
r 0.05808 2 6 tcp 1040 ------- 0 0.0 8.0 9 52
+ 0.05808 6 8 tcp 1040 ------- 0 0.0 8.0 9 52
- 0.05808 6 8 tcp 1040 ------- 0 0.0 8.0 9 52
- 0.05808 1 2 tcp 1040 ------- 1 1.0 7.0 7 64
- 0.05808 2 6 cbr 210 ------- 2 2.0 6.0 15 61
- 0.0584 0 2 tcp 1040 ------- 0 0.0 8.0 14 60
r 0.058416 2 6 cbr 210 ------- 3 3.0 9.0 14 58
+ 0.058416 6 8 cbr 210 ------- 3 3.0 9.0 14 58
- 0.058416 2 6 tcp 1040 ------- 0 0.0 8.0 11 55
r 0.058586 3 2 cbr 210 ------- 3 3.0 9.0 15 62
+ 0.058586 2 6 cbr 210 ------- 3 3.0 9.0 15 62
r 0.058736 0 2 tcp 1040 ------- 0 0.0 8.0 12 56
+ 0.058736 2 6 tcp 1040 ------- 0 0.0 8.0 12 56
r 0.059744 6 8 tcp 1040 ------- 0 0.0 8.0 8 48
+ 0.059744 8 6 ack 40 ------- 0 8.0 0.0 8 67
- 0.059744 8 6 ack 40 ------- 0 8.0 0.0 8 67
- 0.059744 6 8 cbr 210 ------- 3 3.0 9.0 14 58
- 0.059744 1 2 tcp 1040 ------- 1 1.0 7.0 8 65
r 0.059808 8 6 ack 40 ------- 0 8.0 0.0 7 66
+ 0.059808 6 2 ack 40 ------- 0 8.0 0.0 7 66
- 0.059808 6 2 ack 40 ------- 0 8.0 0.0 7 66
+ 0.06 2 6 cbr 210 ------- 2 2.0 6.0 16 68
+ 0.06 3 2 cbr 210 ------- 3 3.0 9.0 16 69
- 0.06 3 2 cbr 210 ------- 3 3.0 9.0 16 69
r 0.06008 1 2 tcp 1040 ------- 1 1.0 7.0 6 63
+ 0.06008 2 6 tcp 1040 ------- 1 1.0 7.0 6 63
r 0.06008 2 6 tcp 1040 ------- 0 0.0 8.0 10 53
+ 0.06008 6 8 tcp 1040 ------- 0 0.0 8.0 10 53
- 0.06008 2 6 cbr 210 ------- 3 3.0 9.0 15 62
- 0.06008 6 8 tcp 1040 ------- 0 0.0 8.0 10 53
r 0.0604 0 2 tcp 1040 ------- 0 0.0 8.0 13 59
+ 0.0604 2 6 tcp 1040 ------- 0 0.0 8.0 13 59
r 0.060416 8 9 cbr 210 ------- 3 3.0 9.0 13 51
r 0.060416 2 6 cbr 210 ------- 2 2.0 6.0 15 61
- 0.060416 2 6 tcp 1040 ------- 0 0.0 8.0 12 56
r 0.061744 6 8 tcp 1040 ------- 0 0.0 8.0 9 52
+ 0.061744 8 6 ack 40 ------- 0 8.0 0.0 9 70
- 0.061744 8 6 ack 40 ------- 0 8.0 0.0 9 70
r 0.061744 1 2 tcp 1040 ------- 1 1.0 7.0 7 64
+ 0.061744 2 6 tcp 1040 ------- 1 1.0 7.0 7 64
r 0.061808 8 6 ack 40 ------- 0 8.0 0.0 8 67
+ 0.061808 6 2 ack 40 ------- 0 8.0 0.0 8 67
- 0.061808 6 2 ack 40 ------- 0 8.0 0.0 8 67
r 0.061872 6 2 ack 40 ------- 0 8.0 0.0 7 66
+ 0.061872 2 0 ack 40 ------- 0 8.0 0.0 7 66
- 0.061872 2 0 ack 40 ------- 0 8.0 0.0 7 66
r 0.062064 0 2 tcp 1040 ------- 0 0.0 8.0 14 60
+ 0.062064 2 6 tcp 1040 ------- 0 0.0 8.0 14 60
r 0.06208 6 8 cbr 210 ------- 3 3.0 9.0 14 58
+ 0.06208 8 9 cbr 210 ------- 3 3.0 9.0 14 58
- 0.06208 8 9 cbr 210 ------- 3 3.0 9.0 14 58
r 0.06208 2 6 tcp 1040 ------- 0 0.0 8.0 11 55
+ 0.06208 6 8 tcp 1040 ------- 0 0.0 8.0 11 55
- 0.06208 6 8 tcp 1040 ------- 0 0.0 8.0 11 55
- 0.06208 2 6 cbr 210 ------- 2 2.0 6.0 16 68
r 0.062336 3 2 cbr 210 ------- 3 3.0 9.0 16 69
+ 0.062336 2 6 cbr 210 ------- 3 3.0 9.0 16 69
r 0.062416 2 6 cbr 210 ------- 3 3.0 9.0 15 62
+ 0.062416 6 8 cbr 210 ------- 3 3.0 9.0 15 62
- 0.062416 2 6 tcp 1040 ------- 1 1.0 7.0 6 63
r 0.063408 1 2 tcp 1040 ------- 1 1.0 7.0 8 65
+ 0.063408 2 6 tcp 1040 ------- 1 1.0 7.0 8 65
r 0.063744 6 8 tcp 1040 ------- 0 0.0 8.0 10 53
+ 0.063744 8 6 ack 40 ------- 0 8.0 0.0 10 71
- 0.063744 8 6 ack 40 ------- 0 8.0 0.0 10 71
- 0.063744 6 8 cbr 210 ------- 3 3.0 9.0 15 62
+ 0.06375 2 6 cbr 210 ------- 2 2.0 6.0 17 72
+ 0.06375 3 2 cbr 210 ------- 3 3.0 9.0 17 73
- 0.06375 3 2 cbr 210 ------- 3 3.0 9.0 17 73
r 0.063808 8 6 ack 40 ------- 0 8.0 0.0 9 70
+ 0.063808 6 2 ack 40 ------- 0 8.0 0.0 9 70
- 0.063808 6 2 ack 40 ------- 0 8.0 0.0 9 70
r 0.063872 6 2 ack 40 ------- 0 8.0 0.0 8 67
+ 0.063872 2 0 ack 40 ------- 0 8.0 0.0 8 67
- 0.063872 2 0 ack 40 ------- 0 8.0 0.0 8 67
r 0.063936 2 0 ack 40 ------- 0 8.0 0.0 7 66
+ 0.063936 0 2 tcp 1040 ------- 0 0.0 8.0 15 74
- 0.063936 0 2 tcp 1040 ------- 0 0.0 8.0 15 74
+ 0.063936 0 2 tcp 1040 ------- 0 0.0 8.0 16 75
r 0.06408 2 6 tcp 1040 ------- 0 0.0 8.0 12 56
+ 0.06408 6 8 tcp 1040 ------- 0 0.0 8.0 12 56
- 0.06408 2 6 tcp 1040 ------- 0 0.0 8.0 13 59
- 0.06408 6 8 tcp 1040 ------- 0 0.0 8.0 12 56
r 0.064416 8 9 cbr 210 ------- 3 3.0 9.0 14 58
r 0.064416 2 6 cbr 210 ------- 2 2.0 6.0 16 68
- 0.0656 0 2 tcp 1040 ------- 0 0.0 8.0 16 75
r 0.065744 6 8 tcp 1040 ------- 0 0.0 8.0 11 55
+ 0.065744 8 6 ack 40 ------- 0 8.0 0.0 11 76
- 0.065744 8 6 ack 40 ------- 0 8.0 0.0 11 76
- 0.065744 2 6 tcp 1040 ------- 1 1.0 7.0 7 64
r 0.065808 8 6 ack 40 ------- 0 8.0 0.0 10 71
+ 0.065808 6 2 ack 40 ------- 0 8.0 0.0 10 71
- 0.065808 6 2 ack 40 ------- 0 8.0 0.0 10 71
r 0.065872 6 2 ack 40 ------- 0 8.0 0.0 9 70
+ 0.065872 2 0 ack 40 ------- 0 8.0 0.0 9 70
- 0.065872 2 0 ack 40 ------- 0 8.0 0.0 9 70
r 0.065936 2 0 ack 40 ------- 0 8.0 0.0 8 67
+ 0.065936 0 2 tcp 1040 ------- 0 0.0 8.0 17 77
+ 0.065936 0 2 tcp 1040 ------- 0 0.0 8.0 18 78
r 0.06608 2 6 tcp 1040 ------- 1 1.0 7.0 6 63
+ 0.06608 6 7 tcp 1040 ------- 1 1.0 7.0 6 63
- 0.06608 6 7 tcp 1040 ------- 1 1.0 7.0 6 63
r 0.06608 6 8 cbr 210 ------- 3 3.0 9.0 15 62
+ 0.06608 8 9 cbr 210 ------- 3 3.0 9.0 15 62
- 0.06608 8 9 cbr 210 ------- 3 3.0 9.0 15 62
r 0.066086 3 2 cbr 210 ------- 3 3.0 9.0 17 73
+ 0.066086 2 6 cbr 210 ------- 3 3.0 9.0 17 73
- 0.067264 0 2 tcp 1040 ------- 0 0.0 8.0 17 77
- 0.067408 2 6 tcp 1040 ------- 0 0.0 8.0 14 60
+ 0.0675 2 6 cbr 210 ------- 2 2.0 6.0 18 79
+ 0.0675 3 2 cbr 210 ------- 3 3.0 9.0 18 80
- 0.0675 3 2 cbr 210 ------- 3 3.0 9.0 18 80
r 0.0676 0 2 tcp 1040 ------- 0 0.0 8.0 15 74
+ 0.0676 2 6 tcp 1040 ------- 0 0.0 8.0 15 74
r 0.067744 2 6 tcp 1040 ------- 0 0.0 8.0 13 59
+ 0.067744 6 8 tcp 1040 ------- 0 0.0 8.0 13 59
- 0.067744 6 8 tcp 1040 ------- 0 0.0 8.0 13 59
r 0.067744 6 8 tcp 1040 ------- 0 0.0 8.0 12 56
+ 0.067744 8 6 ack 40 ------- 0 8.0 0.0 12 81
- 0.067744 8 6 ack 40 ------- 0 8.0 0.0 12 81
r 0.067808 8 6 ack 40 ------- 0 8.0 0.0 11 76
+ 0.067808 6 2 ack 40 ------- 0 8.0 0.0 11 76
- 0.067808 6 2 ack 40 ------- 0 8.0 0.0 11 76
r 0.067872 6 2 ack 40 ------- 0 8.0 0.0 10 71
+ 0.067872 2 0 ack 40 ------- 0 8.0 0.0 10 71
- 0.067872 2 0 ack 40 ------- 0 8.0 0.0 10 71
r 0.067936 2 0 ack 40 ------- 0 8.0 0.0 9 70
+ 0.067936 0 2 tcp 1040 ------- 0 0.0 8.0 19 82
+ 0.067936 0 2 tcp 1040 ------- 0 0.0 8.0 20 83
r 0.068416 8 9 cbr 210 ------- 3 3.0 9.0 15 62
- 0.068928 0 2 tcp 1040 ------- 0 0.0 8.0 18 78
- 0.069072 2 6 cbr 210 ------- 3 3.0 9.0 16 69
r 0.069264 0 2 tcp 1040 ------- 0 0.0 8.0 16 75
+ 0.069264 2 6 tcp 1040 ------- 0 0.0 8.0 16 75
r 0.069408 2 6 tcp 1040 ------- 1 1.0 7.0 7 64
+ 0.069408 6 7 tcp 1040 ------- 1 1.0 7.0 7 64
- 0.069408 6 7 tcp 1040 ------- 1 1.0 7.0 7 64
- 0.069408 2 6 tcp 1040 ------- 1 1.0 7.0 8 65
r 0.069744 6 7 tcp 1040 ------- 1 1.0 7.0 6 63
+ 0.069744 7 6 ack 40 ------- 1 7.0 1.0 6 84
- 0.069744 7 6 ack 40 ------- 1 7.0 1.0 6 84
r 0.069808 8 6 ack 40 ------- 0 8.0 0.0 12 81
+ 0.069808 6 2 ack 40 ------- 0 8.0 0.0 12 81
- 0.069808 6 2 ack 40 ------- 0 8.0 0.0 12 81
r 0.069836 3 2 cbr 210 ------- 3 3.0 9.0 18 80
+ 0.069836 2 6 cbr 210 ------- 3 3.0 9.0 18 80
r 0.069872 6 2 ack 40 ------- 0 8.0 0.0 11 76
+ 0.069872 2 0 ack 40 ------- 0 8.0 0.0 11 76
- 0.069872 2 0 ack 40 ------- 0 8.0 0.0 11 76
r 0.069936 2 0 ack 40 ------- 0 8.0 0.0 10 71
+ 0.069936 0 2 tcp 1040 ------- 0 0.0 8.0 21 85
+ 0.069936 0 2 tcp 1040 ------- 0 0.0 8.0 22 86
- 0.070592 0 2 tcp 1040 ------- 0 0.0 8.0 19 82
r 0.070928 0 2 tcp 1040 ------- 0 0.0 8.0 17 77
+ 0.070928 2 6 tcp 1040 ------- 0 0.0 8.0 17 77
r 0.071072 2 6 tcp 1040 ------- 0 0.0 8.0 14 60
+ 0.071072 6 8 tcp 1040 ------- 0 0.0 8.0 14 60
- 0.071072 6 8 tcp 1040 ------- 0 0.0 8.0 14 60
- 0.071072 2 6 cbr 210 ------- 2 2.0 6.0 17 72
+ 0.07125 2 6 cbr 210 ------- 2 2.0 6.0 19 87
+ 0.07125 3 2 cbr 210 ------- 3 3.0 9.0 19 88
- 0.07125 3 2 cbr 210 ------- 3 3.0 9.0 19 88
r 0.071408 6 8 tcp 1040 ------- 0 0.0 8.0 13 59
+ 0.071408 8 6 ack 40 ------- 0 8.0 0.0 13 89
- 0.071408 8 6 ack 40 ------- 0 8.0 0.0 13 89
r 0.071408 2 6 cbr 210 ------- 3 3.0 9.0 16 69
+ 0.071408 6 8 cbr 210 ------- 3 3.0 9.0 16 69
- 0.071408 2 6 cbr 210 ------- 3 3.0 9.0 17 73
- 0.071744 2 6 cbr 210 ------- 2 2.0 6.0 18 79
r 0.071808 7 6 ack 40 ------- 1 7.0 1.0 6 84
+ 0.071808 6 2 ack 40 ------- 1 7.0 1.0 6 84
- 0.071808 6 2 ack 40 ------- 1 7.0 1.0 6 84
r 0.071872 6 2 ack 40 ------- 0 8.0 0.0 12 81
+ 0.071872 2 0 ack 40 ------- 0 8.0 0.0 12 81
- 0.071872 2 0 ack 40 ------- 0 8.0 0.0 12 81
r 0.071936 2 0 ack 40 ------- 0 8.0 0.0 11 76
+ 0.071936 0 2 tcp 1040 ------- 0 0.0 8.0 23 90
+ 0.071936 0 2 tcp 1040 ------- 0 0.0 8.0 24 91
- 0.07208 2 6 tcp 1040 ------- 0 0.0 8.0 15 74
- 0.072256 0 2 tcp 1040 ------- 0 0.0 8.0 20 83
r 0.072592 0 2 tcp 1040 ------- 0 0.0 8.0 18 78
+ 0.072592 2 6 tcp 1040 ------- 0 0.0 8.0 18 78
- 0.072736 6 8 cbr 210 ------- 3 3.0 9.0 16 69
r 0.073072 6 7 tcp 1040 ------- 1 1.0 7.0 7 64
r 0.073072 2 6 tcp 1040 ------- 1 1.0 7.0 8 65