+ 0 0 5 tcp 40 ------- 1 0.0 4.0 0 0
- 0 0 5 tcp 40 ------- 1 0.0 4.0 0 0
r 0.01032 0 5 tcp 40 ------- 1 0.0 4.0 0 0
+ 0.01032 5 4 tcp 40 ------- 1 0.0 4.0 0 0
- 0.01032 5 4 tcp 40 ------- 1 0.0 4.0 0 0
r 0.02064 5 4 tcp 40 ------- 1 0.0 4.0 0 0
+ 0.02064 4 5 ack 40 ------- 1 4.0 0.0 0 1
- 0.02064 4 5 ack 40 ------- 1 4.0 0.0 0 1
r 0.03096 4 5 ack 40 ------- 1 4.0 0.0 0 1
+ 0.03096 5 0 ack 40 ------- 1 4.0 0.0 0 1
- 0.03096 5 0 ack 40 ------- 1 4.0 0.0 0 1
r 0.04128 5 0 ack 40 ------- 1 4.0 0.0 0 1
+ 0.04128 0 5 tcp 1040 ------- 1 0.0 4.0 1 2
- 0.04128 0 5 tcp 1040 ------- 1 0.0 4.0 1 2
+ 0.04128 0 5 tcp 1040 ------- 1 0.0 4.0 2 3
- 0.0496 0 5 tcp 1040 ------- 1 0.0 4.0 2 3
r 0.0596 0 5 tcp 1040 ------- 1 0.0 4.0 1 2
+ 0.0596 5 4 tcp 1040 ------- 1 0.0 4.0 1 2
- 0.0596 5 4 tcp 1040 ------- 1 0.0 4.0 1 2
r 0.06792 0 5 tcp 1040 ------- 1 0.0 4.0 2 3
+ 0.06792 5 4 tcp 1040 ------- 1 0.0 4.0 2 3
- 0.06792 5 4 tcp 1040 ------- 1 0.0 4.0 2 3
r 0.07792 5 4 tcp 1040 ------- 1 0.0 4.0 1 2
+ 0.07792 4 5 ack 40 ------- 1 4.0 0.0 1 4
- 0.07792 4 5 ack 40 ------- 1 4.0 0.0 1 4
r 0.08624 5 4 tcp 1040 ------- 1 0.0 4.0 2 3
+ 0.08624 4 5 ack 40 ------- 1 4.0 0.0 2 5
- 0.08624 4 5 ack 40 ------- 1 4.0 0.0 2 5
r 0.08824 4 5 ack 40 ------- 1 4.0 0.0 1 4
+ 0.08824 5 0 ack 40 ------- 1 4.0 0.0 1 4
- 0.08824 5 0 ack 40 ------- 1 4.0 0.0 1 4
r 0.09656 4 5 ack 40 ------- 1 4.0 0.0 2 5
+ 0.09656 5 0 ack 40 ------- 1 4.0 0.0 2 5
- 0.09656 5 0 ack 40 ------- 1 4.0 0.0 2 5
r 0.09856 5 0 ack 40 ------- 1 4.0 0.0 1 4
+ 0.09856 0 5 tcp 1040 ------- 1 0.0 4.0 3 6
- 0.09856 0 5 tcp 1040 ------- 1 0.0 4.0 3 6
+ 0.09856 0 5 tcp 1040 ------- 1 0.0 4.0 4 7
- 0.10688 0 5 tcp 1040 ------- 1 0.0 4.0 4 7
r 0.10688 5 0 ack 40 ------- 1 4.0 0.0 2 5
+ 0.10688 0 5 tcp 1040 ------- 1 0.0 4.0 5 8
+ 0.10688 0 5 tcp 1040 ------- 1 0.0 4.0 6 9
- 0.1152 0 5 tcp 1040 ------- 1 0.0 4.0 5 8
r 0.11688 0 5 tcp 1040 ------- 1 0.0 4.0 3 6
+ 0.11688 5 4 tcp 1040 ------- 1 0.0 4.0 3 6
- 0.11688 5 4 tcp 1040 ------- 1 0.0 4.0 3 6
- 0.12352 0 5 tcp 1040 ------- 1 0.0 4.0 6 9
r 0.1252 0 5 tcp 1040 ------- 1 0.0 4.0 4 7
+ 0.1252 5 4 tcp 1040 ------- 1 0.0 4.0 4 7
- 0.1252 5 4 tcp 1040 ------- 1 0.0 4.0 4 7
r 0.13352 0 5 tcp 1040 ------- 1 0.0 4.0 5 8
+ 0.13352 5 4 tcp 1040 ------- 1 0.0 4.0 5 8
- 0.13352 5 4 tcp 1040 ------- 1 0.0 4.0 5 8
r 0.1352 5 4 tcp 1040 ------- 1 0.0 4.0 3 6
+ 0.1352 4 5 ack 40 ------- 1 4.0 0.0 3 10
- 0.1352 4 5 ack 40 ------- 1 4.0 0.0 3 10
r 0.14184 0 5 tcp 1040 ------- 1 0.0 4.0 6 9
+ 0.14184 5 4 tcp 1040 ------- 1 0.0 4.0 6 9
- 0.14184 5 4 tcp 1040 ------- 1 0.0 4.0 6 9
r 0.14352 5 4 tcp 1040 ------- 1 0.0 4.0 4 7
+ 0.14352 4 5 ack 40 ------- 1 4.0 0.0 4 11
- 0.14352 4 5 ack 40 ------- 1 4.0 0.0 4 11
r 0.14552 4 5 ack 40 ------- 1 4.0 0.0 3 10
+ 0.14552 5 0 ack 40 ------- 1 4.0 0.0 3 10
- 0.14552 5 0 ack 40 ------- 1 4.0 0.0 3 10
r 0.15184 5 4 tcp 1040 ------- 1 0.0 4.0 5 8
+ 0.15184 4 5 ack 40 ------- 1 4.0 0.0 5 12
- 0.15184 4 5 ack 40 ------- 1 4.0 0.0 5 12
r 0.15384 4 5 ack 40 ------- 1 4.0 0.0 4 11
+ 0.15384 5 0 ack 40 ------- 1 4.0 0.0 4 11
- 0.15384 5 0 ack 40 ------- 1 4.0 0.0 4 11
r 0.15584 5 0 ack 40 ------- 1 4.0 0.0 3 10
+ 0.15584 0 5 tcp 1040 ------- 1 0.0 4.0 7 13
- 0.15584 0 5 tcp 1040 ------- 1 0.0 4.0 7 13
+ 0.15584 0 5 tcp 1040 ------- 1 0.0 4.0 8 14
r 0.16016 5 4 tcp 1040 ------- 1 0.0 4.0 6 9
+ 0.16016 4 5 ack 40 ------- 1 4.0 0.0 6 15
- 0.16016 4 5 ack 40 ------- 1 4.0 0.0 6 15
r 0.16216 4 5 ack 40 ------- 1 4.0 0.0 5 12
+ 0.16216 5 0 ack 40 ------- 1 4.0 0.0 5 12
- 0.16216 5 0 ack 40 ------- 1 4.0 0.0 5 12
- 0.16416 0 5 tcp 1040 ------- 1 0.0 4.0 8 14
r 0.16416 5 0 ack 40 ------- 1 4.0 0.0 4 11
+ 0.16416 0 5 tcp 1040 ------- 1 0.0 4.0 9 16
+ 0.16416 0 5 tcp 1040 ------- 1 0.0 4.0 10 17
r 0.17048 4 5 ack 40 ------- 1 4.0 0.0 6 15
+ 0.17048 5 0 ack 40 ------- 1 4.0 0.0 6 15
- 0.17048 5 0 ack 40 ------- 1 4.0 0.0 6 15
- 0.17248 0 5 tcp 1040 ------- 1 0.0 4.0 9 16
r 0.17248 5 0 ack 40 ------- 1 4.0 0.0 5 12
+ 0.17248 0 5 tcp 1040 ------- 1 0.0 4.0 11 18
+ 0.17248 0 5 tcp 1040 ------- 1 0.0 4.0 12 19
r 0.17416 0 5 tcp 1040 ------- 1 0.0 4.0 7 13
+ 0.17416 5 4 tcp 1040 ------- 1 0.0 4.0 7 13
- 0.17416 5 4 tcp 1040 ------- 1 0.0 4.0 7 13
- 0.1808 0 5 tcp 1040 ------- 1 0.0 4.0 10 17
r 0.1808 5 0 ack 40 ------- 1 4.0 0.0 6 15
+ 0.1808 0 5 tcp 1040 ------- 1 0.0 4.0 13 20
+ 0.1808 0 5 tcp 1040 ------- 1 0.0 4.0 14 21
r 0.18248 0 5 tcp 1040 ------- 1 0.0 4.0 8 14
+ 0.18248 5 4 tcp 1040 ------- 1 0.0 4.0 8 14
- 0.18248 5 4 tcp 1040 ------- 1 0.0 4.0 8 14
- 0.18912 0 5 tcp 1040 ------- 1 0.0 4.0 11 18
r 0.1908 0 5 tcp 1040 ------- 1 0.0 4.0 9 16
+ 0.1908 5 4 tcp 1040 ------- 1 0.0 4.0 9 16
- 0.1908 5 4 tcp 1040 ------- 1 0.0 4.0 9 16
r 0.19248 5 4 tcp 1040 ------- 1 0.0 4.0 7 13
+ 0.19248 4 5 ack 40 ------- 1 4.0 0.0 7 22
- 0.19248 4 5 ack 40 ------- 1 4.0 0.0 7 22
- 0.19744 0 5 tcp 1040 ------- 1 0.0 4.0 12 19
r 0.19912 0 5 tcp 1040 ------- 1 0.0 4.0 10 17
+ 0.19912 5 4 tcp 1040 ------- 1 0.0 4.0 10 17
- 0.19912 5 4 tcp 1040 ------- 1 0.0 4.0 10 17
r 0.2008 5 4 tcp 1040 ------- 1 0.0 4.0 8 14
+ 0.2008 4 5 ack 40 ------- 1 4.0 0.0 8 23
- 0.2008 4 5 ack 40 ------- 1 4.0 0.0 8 23
r 0.2028 4 5 ack 40 ------- 1 4.0 0.0 7 22
+ 0.2028 5 0 ack 40 ------- 1 4.0 0.0 7 22
- 0.2028 5 0 ack 40 ------- 1 4.0 0.0 7 22
- 0.20576 0 5 tcp 1040 ------- 1 0.0 4.0 13 20
r 0.20744 0 5 tcp 1040 ------- 1 0.0 4.0 11 18
+ 0.20744 5 4 tcp 1040 ------- 1 0.0 4.0 11 18
- 0.20744 5 4 tcp 1040 ------- 1 0.0 4.0 11 18
r 0.20912 5 4 tcp 1040 ------- 1 0.0 4.0 9 16
+ 0.20912 4 5 ack 40 ------- 1 4.0 0.0 9 24
- 0.20912 4 5 ack 40 ------- 1 4.0 0.0 9 24
r 0.21112 4 5 ack 40 ------- 1 4.0 0.0 8 23
+ 0.21112 5 0 ack 40 ------- 1 4.0 0.0 8 23
- 0.21112 5 0 ack 40 ------- 1 4.0 0.0 8 23
r 0.21312 5 0 ack 40 ------- 1 4.0 0.0 7 22
+ 0.21312 0 5 tcp 1040 ------- 1 0.0 4.0 15 25
+ 0.21312 0 5 tcp 1040 ------- 1 0.0 4.0 16 26
- 0.21408 0 5 tcp 1040 ------- 1 0.0 4.0 14 21
r 0.21576 0 5 tcp 1040 ------- 1 0.0 4.0 12 19
+ 0.21576 5 4 tcp 1040 ------- 1 0.0 4.0 12 19
- 0.21576 5 4 tcp 1040 ------- 1 0.0 4.0 12 19
r 0.21744 5 4 tcp 1040 ------- 1 0.0 4.0 10 17
+ 0.21744 4 5 ack 40 ------- 1 4.0 0.0 10 27
- 0.21744 4 5 ack 40 ------- 1 4.0 0.0 10 27
r 0.21944 4 5 ack 40 ------- 1 4.0 0.0 9 24
+ 0.21944 5 0 ack 40 ------- 1 4.0 0.0 9 24
- 0.21944 5 0 ack 40 ------- 1 4.0 0.0 9 24
r 0.22144 5 0 ack 40 ------- 1 4.0 0.0 8 23
+ 0.22144 0 5 tcp 1040 ------- 1 0.0 4.0 17 28
+ 0.22144 0 5 tcp 1040 ------- 1 0.0 4.0 18 29
- 0.2224 0 5 tcp 1040 ------- 1 0.0 4.0 15 25
r 0.22408 0 5 tcp 1040 ------- 1 0.0 4.0 13 20
+ 0.22408 5 4 tcp 1040 ------- 1 0.0 4.0 13 20
- 0.22408 5 4 tcp 1040 ------- 1 0.0 4.0 13 20
r 0.22576 5 4 tcp 1040 ------- 1 0.0 4.0 11 18
+ 0.22576 4 5 ack 40 ------- 1 4.0 0.0 11 30
- 0.22576 4 5 ack 40 ------- 1 4.0 0.0 11 30
r 0.22776 4 5 ack 40 ------- 1 4.0 0.0 10 27
+ 0.22776 5 0 ack 40 ------- 1 4.0 0.0 10 27
- 0.22776 5 0 ack 40 ------- 1 4.0 0.0 10 27
r 0.22976 5 0 ack 40 ------- 1 4.0 0.0 9 24
+ 0.22976 0 5 tcp 1040 ------- 1 0.0 4.0 19 31
+ 0.22976 0 5 tcp 1040 ------- 1 0.0 4.0 20 32
- 0.23072 0 5 tcp 1040 ------- 1 0.0 4.0 16 26
r 0.2324 0 5 tcp 1040 ------- 1 0.0 4.0 14 21
+ 0.2324 5 4 tcp 1040 ------- 1 0.0 4.0 14 21
- 0.2324 5 4 tcp 1040 ------- 1 0.0 4.0 14 21
r 0.23408 5 4 tcp 1040 ------- 1 0.0 4.0 12 19
+ 0.23408 4 5 ack 40 ------- 1 4.0 0.0 12 33
- 0.23408 4 5 ack 40 ------- 1 4.0 0.0 12 33
r 0.23608 4 5 ack 40 ------- 1 4.0 0.0 11 30
+ 0.23608 5 0 ack 40 ------- 1 4.0 0.0 11 30
- 0.23608 5 0 ack 40 ------- 1 4.0 0.0 11 30
r 0.23808 5 0 ack 40 ------- 1 4.0 0.0 10 27
+ 0.23808 0 5 tcp 1040 ------- 1 0.0 4.0 21 34
+ 0.23808 0 5 tcp 1040 ------- 1 0.0 4.0 22 35
- 0.23904 0 5 tcp 1040 ------- 1 0.0 4.0 17 28
r 0.24072 0 5 tcp 1040 ------- 1 0.0 4.0 15 25
+ 0.24072 5 4 tcp 1040 ------- 1 0.0 4.0 15 25
- 0.24072 5 4 tcp 1040 ------- 1 0.0 4.0 15 25
r 0.2424 5 4 tcp 1040 ------- 1 0.0 4.0 13 20
+ 0.2424 4 5 ack 40 ------- 1 4.0 0.0 13 36
- 0.2424 4 5 ack 40 ------- 1 4.0 0.0 13 36
r 0.2444 4 5 ack 40 ------- 1 4.0 0.0 12 33
+ 0.2444 5 0 ack 40 ------- 1 4.0 0.0 12 33
- 0.2444 5 0 ack 40 ------- 1 4.0 0.0 12 33
r 0.2464 5 0 ack 40 ------- 1 4.0 0.0 11 30
+ 0.2464 0 5 tcp 1040 ------- 1 0.0 4.0 23 37
+ 0.2464 0 5 tcp 1040 ------- 1 0.0 4.0 24 38
- 0.24736 0 5 tcp 1040 ------- 1 0.0 4.0 18 29
r 0.24904 0 5 tcp 1040 ------- 1 0.0 4.0 16 26
+ 0.24904 5 4 tcp 1040 ------- 1 0.0 4.0 16 26
- 0.24904 5 4 tcp 1040 ------- 1 0.0 4.0 16 26
r 0.25072 5 4 tcp 1040 ------- 1 0.0 4.0 14 21
+ 0.25072 4 5 ack 40 ------- 1 4.0 0.0 14 39
- 0.25072 4 5 ack 40 ------- 1 4.0 0.0 14 39
r 0.25272 4 5 ack 40 ------- 1 4.0 0.0 13 36
+ 0.25272 5 0 ack 40 ------- 1 4.0 0.0 13 36
- 0.25272 5 0 ack 40 ------- 1 4.0 0.0 13 36
r 0.25472 5 0 ack 40 ------- 1 4.0 0.0 12 33
+ 0.25472 0 5 tcp 1040 ------- 1 0.0 4.0 25 40
+ 0.25472 0 5 tcp 1040 ------- 1 0.0 4.0 26 41
- 0.25568 0 5 tcp 1040 ------- 1 0.0 4.0 19 31
r 0.25736 0 5 tcp 1040 ------- 1 0.0 4.0 17 28
+ 0.25736 5 4 tcp 1040 ------- 1 0.0 4.0 17 28
- 0.25736 5 4 tcp 1040 ------- 1 0.0 4.0 17 28
r 0.25904 5 4 tcp 1040 ------- 1 0.0 4.0 15 25
+ 0.25904 4 5 ack 40 ------- 1 4.0 0.0 15 42
- 0.25904 4 5 ack 40 ------- 1 4.0 0.0 15 42
r 0.26104 4 5 ack 40 ------- 1 4.0 0.0 14 39
+ 0.26104 5 0 ack 40 ------- 1 4.0 0.0 14 39
- 0.26104 5 0 ack 40 ------- 1 4.0 0.0 14 39
r 0.26304 5 0 ack 40 ------- 1 4.0 0.0 13 36
+ 0.26304 0 5 tcp 1040 ------- 1 0.0 4.0 27 43
+ 0.26304 0 5 tcp 1040 ------- 1 0.0 4.0 28 44
- 0.264 0 5 tcp 1040 ------- 1 0.0 4.0 20 32
r 0.26568 0 5 tcp 1040 ------- 1 0.0 4.0 18 29
+ 0.26568 5 4 tcp 1040 ------- 1 0.0 4.0 18 29
- 0.26568 5 4 tcp 1040 ------- 1 0.0 4.0 18 29
r 0.26736 5 4 tcp 1040 ------- 1 0.0 4.0 16 26
+ 0.26736 4 5 ack 40 ------- 1 4.0 0.0 16 45
- 0.26736 4 5 ack 40 ------- 1 4.0 0.0 16 45
r 0.26936 4 5 ack 40 ------- 1 4.0 0.0 15 42
+ 0.26936 5 0 ack 40 ------- 1 4.0 0.0 15 42
- 0.26936 5 0 ack 40 ------- 1 4.0 0.0 15 42
r 0.27136 5 0 ack 40 ------- 1 4.0 0.0 14 39
+ 0.27136 0 5 tcp 1040 ------- 1 0.0 4.0 29 46
+ 0.27136 0 5 tcp 1040 ------- 1 0.0 4.0 30 47
- 0.27232 0 5 tcp 1040 ------- 1 0.0 4.0 21 34
r 0.274 0 5 tcp 1040 ------- 1 0.0 4.0 19 31
+ 0.274 5 4 tcp 1040 ------- 1 0.0 4.0 19 31
- 0.274 5 4 tcp 1040 ------- 1 0.0 4.0 19 31
r 0.27568 5 4 tcp 1040 ------- 1 0.0 4.0 17 28
+ 0.27568 4 5 ack 40 ------- 1 4.0 0.0 17 48
- 0.27568 4 5 ack 40 ------- 1 4.0 0.0 17 48
r 0.27768 4 5 ack 40 ------- 1 4.0 0.0 16 45
+ 0.27768 5 0 ack 40 ------- 1 4.0 0.0 16 45
- 0.27768 5 0 ack 40 ------- 1 4.0 0.0 16 45
r 0.27968 5 0 ack 40 ------- 1 4.0 0.0 15 42
+ 0.27968 0 5 tcp 1040 ------- 1 0.0 4.0 31 49
+ 0.27968 0 5 tcp 1040 ------- 1 0.0 4.0 32 50
- 0.28064 0 5 tcp 1040 ------- 1 0.0 4.0 22 35
r 0.28232 0 5 tcp 1040 ------- 1 0.0 4.0 20 32
+ 0.28232 5 4 tcp 1040 ------- 1 0.0 4.0 20 32
- 0.28232 5 4 tcp 1040 ------- 1 0.0 4.0 20 32
r 0.284 5 4 tcp 1040 ------- 1 0.0 4.0 18 29
+ 0.284 4 5 ack 40 ------- 1 4.0 0.0 18 51
- 0.284 4 5 ack 40 ------- 1 4.0 0.0 18 51
r 0.286 4 5 ack 40 ------- 1 4.0 0.0 17 48
+ 0.286 5 0 ack 40 ------- 1 4.0 0.0 17 48
- 0.286 5 0 ack 40 ------- 1 4.0 0.0 17 48
r 0.288 5 0 ack 40 ------- 1 4.0 0.0 16 45
+ 0.288 0 5 tcp 1040 ------- 1 0.0 4.0 33 52
+ 0.288 0 5 tcp 1040 ------- 1 0.0 4.0 34 53
- 0.28896 0 5 tcp 1040 ------- 1 0.0 4.0 23 37
r 0.29064 0 5 tcp 1040 ------- 1 0.0 4.0 21 34
+ 0.29064 5 4 tcp 1040 ------- 1 0.0 4.0 21 34
- 0.29064 5 4 tcp 1040 ------- 1 0.0 4.0 21 34
r 0.29232 5 4 tcp 1040 ------- 1 0.0 4.0 19 31
+ 0.29232 4 5 ack 40 ------- 1 4.0 0.0 19 54
- 0.29232 4 5 ack 40 ------- 1 4.0 0.0 19 54
r 0.29432 4 5 ack 40 ------- 1 4.0 0.0 18 51
+ 0.29432 5 0 ack 40 ------- 1 4.0 0.0 18 51
- 0.29432 5 0 ack 40 ------- 1 4.0 0.0 18 51
r 0.29632 5 0 ack 40 ------- 1 4.0 0.0 17 48
+ 0.29632 0 5 tcp 1040 ------- 1 0.0 4.0 35 55
+ 0.29632 0 5 tcp 1040 ------- 1 0.0 4.0 36 56
- 0.29728 0 5 tcp 1040 ------- 1 0.0 4.0 24 38
r 0.29896 0 5 tcp 1040 ------- 1 0.0 4.0 22 35
+ 0.29896 5 4 tcp 1040 ------- 1 0.0 4.0 22 35
- 0.29896 5 4 tcp 1040 ------- 1 0.0 4.0 22 35
r 0.30064 5 4 tcp 1040 ------- 1 0.0 4.0 20 32
+ 0.30064 4 5 ack 40 ------- 1 4.0 0.0 20 57
- 0.30064 4 5 ack 40 ------- 1 4.0 0.0 20 57
r 0.30264 4 5 ack 40 ------- 1 4.0 0.0 19 54
+ 0.30264 5 0 ack 40 ------- 1 4.0 0.0 19 54
- 0.30264 5 0 ack 40 ------- 1 4.0 0.0 19 54
r 0.30464 5 0 ack 40 ------- 1 4.0 0.0 18 51
+ 0.30464 0 5 tcp 1040 ------- 1 0.0 4.0 37 58
+ 0.30464 0 5 tcp 1040 ------- 1 0.0 4.0 38 59
- 0.3056 0 5 tcp 1040 ------- 1 0.0 4.0 25 40
r 0.30728 0 5 tcp 1040 ------- 1 0.0 4.0 23 37
+ 0.30728 5 4 tcp 1040 ------- 1 0.0 4.0 23 37
- 0.30728 5 4 tcp 1040 ------- 1 0.0 4.0 23 37
r 0.30896 5 4 tcp 1040 ------- 1 0.0 4.0 21 34
+ 0.30896 4 5 ack 40 ------- 1 4.0 0.0 21 60
- 0.30896 4 5 ack 40 ------- 1 4.0 0.0 21 60
r 0.31096 4 5 ack 40 ------- 1 4.0 0.0 20 57
+ 0.31096 5 0 ack 40 ------- 1 4.0 0.0 20 57
- 0.31096 5 0 ack 40 ------- 1 4.0 0.0 20 57
r 0.31296 5 0 ack 40 ------- 1 4.0 0.0 19 54
+ 0.31296 0 5 tcp 1040 ------- 1 0.0 4.0 39 61
- 0.31392 0 5 tcp 1040 ------- 1 0.0 4.0 26 41
r 0.3156 0 5 tcp 1040 ------- 1 0.0 4.0 24 38
+ 0.3156 5 4 tcp 1040 ------- 1 0.0 4.0 24 38
- 0.3156 5 4 tcp 1040 ------- 1 0.0 4.0 24 38
r 0.31728 5 4 tcp 1040 ------- 1 0.0 4.0 22 35
+ 0.31728 4 5 ack 40 ------- 1 4.0 0.0 22 62
- 0.31728 4 5 ack 40 ------- 1 4.0 0.0 22 62
r 0.31928 4 5 ack 40 ------- 1 4.0 0.0 21 60
+ 0.31928 5 0 ack 40 ------- 1 4.0 0.0 21 60
- 0.31928 5 0 ack 40 ------- 1 4.0 0.0 21 60
r 0.32128 5 0 ack 40 ------- 1 4.0 0.0 20 57
+ 0.32128 0 5 tcp 1040 ------- 1 0.0 4.0 40 63
- 0.32224 0 5 tcp 1040 ------- 1 0.0 4.0 27 43
r 0.32392 0 5 tcp 1040 ------- 1 0.0 4.0 25 40
+ 0.32392 5 4 tcp 1040 ------- 1 0.0 4.0 25 40
- 0.32392 5 4 tcp 1040 ------- 1 0.0 4.0 25 40
r 0.3256 5 4 tcp 1040 ------- 1 0.0 4.0 23 37
+ 0.3256 4 5 ack 40 ------- 1 4.0 0.0 23 64
- 0.3256 4 5 ack 40 ------- 1 4.0 0.0 23 64
r 0.3276 4 5 ack 40 ------- 1 4.0 0.0 22 62
+ 0.3276 5 0 ack 40 ------- 1 4.0 0.0 22 62
- 0.3276 5 0 ack 40 ------- 1 4.0 0.0 22 62
r 0.3296 5 0 ack 40 ------- 1 4.0 0.0 21 60
+ 0.3296 0 5 tcp 1040 ------- 1 0.0 4.0 41 65
- 0.33056 0 5 tcp 1040 ------- 1 0.0 4.0 28 44
r 0.33224 0 5 tcp 1040 ------- 1 0.0 4.0 26 41
+ 0.33224 5 4 tcp 1040 ------- 1 0.0 4.0 26 41
- 0.33224 5 4 tcp 1040 ------- 1 0.0 4.0 26 41
r 0.33392 5 4 tcp 1040 ------- 1 0.0 4.0 24 38
+ 0.33392 4 5 ack 40 ------- 1 4.0 0.0 24 66
- 0.33392 4 5 ack 40 ------- 1 4.0 0.0 24 66
r 0.33592 4 5 ack 40 ------- 1 4.0 0.0 23 64
+ 0.33592 5 0 ack 40 ------- 1 4.0 0.0 23 64
- 0.33592 5 0 ack 40 ------- 1 4.0 0.0 23 64
r 0.33792 5 0 ack 40 ------- 1 4.0 0.0 22 62
+ 0.33792 0 5 tcp 1040 ------- 1 0.0 4.0 42 67
- 0.33888 0 5 tcp 1040 ------- 1 0.0 4.0 29 46
r 0.34056 0 5 tcp 1040 ------- 1 0.0 4.0 27 43
+ 0.34056 5 4 tcp 1040 ------- 1 0.0 4.0 27 43
- 0.34056 5 4 tcp 1040 ------- 1 0.0 4.0 27 43
r 0.34224 5 4 tcp 1040 ------- 1 0.0 4.0 25 40
+ 0.34224 4 5 ack 40 ------- 1 4.0 0.0 25 68
- 0.34224 4 5 ack 40 ------- 1 4.0 0.0 25 68
r 0.34424 4 5 ack 40 ------- 1 4.0 0.0 24 66
+ 0.34424 5 0 ack 40 ------- 1 4.0 0.0 24 66
- 0.34424 5 0 ack 40 ------- 1 4.0 0.0 24 66
r 0.34624 5 0 ack 40 ------- 1 4.0 0.0 23 64
+ 0.34624 0 5 tcp 1040 ------- 1 0.0 4.0 43 69
- 0.3472 0 5 tcp 1040 ------- 1 0.0 4.0 30 47
r 0.34888 0 5 tcp 1040 ------- 1 0.0 4.0 28 44
+ 0.34888 5 4 tcp 1040 ------- 1 0.0 4.0 28 44
- 0.34888 5 4 tcp 1040 ------- 1 0.0 4.0 28 44
r 0.35056 5 4 tcp 1040 ------- 1 0.0 4.0 26 41
+ 0.35056 4 5 ack 40 ------- 1 4.0 0.0 26 70
- 0.35056 4 5 ack 40 ------- 1 4.0 0.0 26 70
r 0.35256 4 5 ack 40 ------- 1 4.0 0.0 25 68
+ 0.35256 5 0 ack 40 ------- 1 4.0 0.0 25 68
- 0.35256 5 0 ack 40 ------- 1 4.0 0.0 25 68
r 0.35456 5 0 ack 40 ------- 1 4.0 0.0 24 66
+ 0.35456 0 5 tcp 1040 ------- 1 0.0 4.0 44 71
- 0.35552 0 5 tcp 1040 ------- 1 0.0 4.0 31 49
r 0.3572 0 5 tcp 1040 ------- 1 0.0 4.0 29 46
+ 0.3572 5 4 tcp 1040 ------- 1 0.0 4.0 29 46
- 0.3572 5 4 tcp 1040 ------- 1 0.0 4.0 29 46
r 0.35888 5 4 tcp 1040 ------- 1 0.0 4.0 27 43
+ 0.35888 4 5 ack 40 ------- 1 4.0 0.0 27 72
- 0.35888 4 5 ack 40 ------- 1 4.0 0.0 27 72
r 0.36088 4 5 ack 40 ------- 1 4.0 0.0 26 70
+ 0.36088 5 0 ack 40 ------- 1 4.0 0.0 26 70
- 0.36088 5 0 ack 40 ------- 1 4.0 0.0 26 70
r 0.36288 5 0 ack 40 ------- 1 4.0 0.0 25 68
+ 0.36288 0 5 tcp 1040 ------- 1 0.0 4.0 45 73
- 0.36384 0 5 tcp 1040 ------- 1 0.0 4.0 32 50
r 0.36552 0 5 tcp 1040 ------- 1 0.0 4.0 30 47
+ 0.36552 5 4 tcp 1040 ------- 1 0.0 4.0 30 47
- 0.36552 5 4 tcp 1040 ------- 1 0.0 4.0 30 47
r 0.3672 5 4 tcp 1040 ------- 1 0.0 4.0 28 44
+ 0.3672 4 5 ack 40 ------- 1 4.0 0.0 28 74
- 0.3672 4 5 ack 40 ------- 1 4.0 0.0 28 74
r 0.3692 4 5 ack 40 ------- 1 4.0 0.0 27 72
+ 0.3692 5 0 ack 40 ------- 1 4.0 0.0 27 72
- 0.3692 5 0 ack 40 ------- 1 4.0 0.0 27 72
r 0.3712 5 0 ack 40 ------- 1 4.0 0.0 26 70
+ 0.3712 0 5 tcp 1040 ------- 1 0.0 4.0 46 75
- 0.37216 0 5 tcp 1040 ------- 1 0.0 4.0 33 52
r 0.37384 0 5 tcp 1040 ------- 1 0.0 4.0 31 49
+ 0.37384 5 4 tcp 1040 ------- 1 0.0 4.0 31 49
- 0.37384 5 4 tcp 1040 ------- 1 0.0 4.0 31 49
r 0.37552 5 4 tcp 1040 ------- 1 0.0 4.0 29 46
+ 0.37552 4 5 ack 40 ------- 1 4.0 0.0 29 76
- 0.37552 4 5 ack 40 ------- 1 4.0 0.0 29 76
r 0.37752 4 5 ack 40 ------- 1 4.0 0.0 28 74
+ 0.37752 5 0 ack 40 ------- 1 4.0 0.0 28 74
- 0.37752 5 0 ack 40 ------- 1 4.0 0.0 28 74
r 0.37952 5 0 ack 40 ------- 1 4.0 0.0 27 72
+ 0.37952 0 5 tcp 1040 ------- 1 0.0 4.0 47 77
- 0.38048 0 5 tcp 1040 ------- 1 0.0 4.0 34 53
r 0.38216 0 5 tcp 1040 ------- 1 0.0 4.0 32 50
+ 0.38216 5 4 tcp 1040 ------- 1 0.0 4.0 32 50
- 0.38216 5 4 tcp 1040 ------- 1 0.0 4.0 32 50
r 0.38384 5 4 tcp 1040 ------- 1 0.0 4.0 30 47
+ 0.38384 4 5 ack 40 ------- 1 4.0 0.0 30 78
- 0.38384 4 5 ack 40 ------- 1 4.0 0.0 30 78
r 0.38584 4 5 ack 40 ------- 1 4.0 0.0 29 76
+ 0.38584 5 0 ack 40 ------- 1 4.0 0.0 29 76
- 0.38584 5 0 ack 40 ------- 1 4.0 0.0 29 76
r 0.38784 5 0 ack 40 ------- 1 4.0 0.0 28 74
+ 0.38784 0 5 tcp 1040 ------- 1 0.0 4.0 48 79
- 0.3888 0 5 tcp 1040 ------- 1 0.0 4.0 35 55
r 0.39048 0 5 tcp 1040 ------- 1 0.0 4.0 33 52
+ 0.39048 5 4 tcp 1040 ------- 1 0.0 4.0 33 52
- 0.39048 5 4 tcp 1040 ------- 1 0.0 4.0 33 52
r 0.39216 5 4 tcp 1040 ------- 1 0.0 4.0 31 49
+ 0.39216 4 5 ack 40 ------- 1 4.0 0.0 31 80
- 0.39216 4 5 ack 40 ------- 1 4.0 0.0 31 80
r 0.39416 4 5 ack 40 ------- 1 4.0 0.0 30 78
+ 0.39416 5 0 ack 40 ------- 1 4.0 0.0 30 78
- 0.39416 5 0 ack 40 ------- 1 4.0 0.0 30 78
r 0.39616 5 0 ack 40 ------- 1 4.0 0.0 29 76
+ 0.39616 0 5 tcp 1040 ------- 1 0.0 4.0 49 81
- 0.39712 0 5 tcp 1040 ------- 1 0.0 4.0 36 56
r 0.3988 0 5 tcp 1040 ------- 1 0.0 4.0 34 53
+ 0.3988 5 4 tcp 1040 ------- 1 0.0 4.0 34 53
- 0.3988 5 4 tcp 1040 ------- 1 0.0 4.0 34 53
r 0.40048 5 4 tcp 1040 ------- 1 0.0 4.0 32 50
+ 0.40048 4 5 ack 40 ------- 1 4.0 0.0 32 82
- 0.40048 4 5 ack 40 ------- 1 4.0 0.0 32 82
r 0.40248 4 5 ack 40 ------- 1 4.0 0.0 31 80
+ 0.40248 5 0 ack 40 ------- 1 4.0 0.0 31 80
- 0.40248 5 0 ack 40 ------- 1 4.0 0.0 31 80
r 0.40448 5 0 ack 40 ------- 1 4.0 0.0 30 78
+ 0.40448 0 5 tcp 1040 ------- 1 0.0 4.0 50 83
- 0.40544 0 5 tcp 1040 ------- 1 0.0 4.0 37 58
r 0.40712 0 5 tcp 1040 ------- 1 0.0 4.0 35 55
+ 0.40712 5 4 tcp 1040 ------- 1 0.0 4.0 35 55
- 0.40712 5 4 tcp 1040 ------- 1 0.0 4.0 35 55
r 0.4088 5 4 tcp 1040 ------- 1 0.0 4.0 33 52
+ 0.4088 4 5 ack 40 ------- 1 4.0 0.0 33 84
- 0.4088 4 5 ack 40 ------- 1 4.0 0.0 33 84
r 0.4108 4 5 ack 40 ------- 1 4.0 0.0 32 82
+ 0.4108 5 0 ack 40 ------- 1 4.0 0.0 32 82
- 0.4108 5 0 ack 40 ------- 1 4.0 0.0 32 82
r 0.4128 5 0 ack 40 ------- 1 4.0 0.0 31 80
+ 0.4128 0 5 tcp 1040 ------- 1 0.0 4.0 51 85
- 0.41376 0 5 tcp 1040 ------- 1 0.0 4.0 38 59
r 0.41544 0 5 tcp 1040 ------- 1 0.0 4.0 36 56
+ 0.41544 5 4 tcp 1040 ------- 1 0.0 4.0 36 56
- 0.41544 5 4 tcp 1040 ------- 1 0.0 4.0 36 56
r 0.41712 5 4 tcp 1040 ------- 1 0.0 4.0 34 53
+ 0.41712 4 5 ack 40 ------- 1 4.0 0.0 34 86
- 0.41712 4 5 ack 40 ------- 1 4.0 0.0 34 86
r 0.41912 4 5 ack 40 ------- 1 4.0 0.0 33 84
+ 0.41912 5 0 ack 40 ------- 1 4.0 0.0 33 84
- 0.41912 5 0 ack 40 ------- 1 4.0 0.0 33 84
r 0.42112 5 0 ack 40 ------- 1 4.0 0.0 32 82
+ 0.42112 0 5 tcp 1040 ------- 1 0.0 4.0 52 87
- 0.42208 0 5 tcp 1040 ------- 1 0.0 4.0 39 61
r 0.42376 0 5 tcp 1040 ------- 1 0.0 4.0 37 58
+ 0.42376 5 4 tcp 1040 ------- 1 0.0 4.0 37 58
- 0.42376 5 4 tcp 1040 ------- 1 0.0 4.0 37 58
r 0.42544 5 4 tcp 1040 ------- 1 0.0 4.0 35 55
+ 0.42544 4 5 ack 40 ------- 1 4.0 0.0 35 88
- 0.42544 4 5 ack 40 ------- 1 4.0 0.0 35 88
r 0.42744 4 5 ack 40 ------- 1 4.0 0.0 34 86
+ 0.42744 5 0 ack 40 ------- 1 4.0 0.0 34 86
- 0.42744 5 0 ack 40 ------- 1 4.0 0.0 34 86
r 0.42944 5 0 ack 40 ------- 1 4.0 0.0 33 84
+ 0.42944 0 5 tcp 1040 ------- 1 0.0 4.0 53 89
- 0.4304 0 5 tcp 1040 ------- 1 0.0 4.0 40 63
r 0.43208 0 5 tcp 1040 ------- 1 0.0 4.0 38 59
+ 0.43208 5 4 tcp 1040 ------- 1 0.0 4.0 38 59
- 0.43208 5 4 tcp 1040 ------- 1 0.0 4.0 38 59
r 0.43376 5 4 tcp 1040 ------- 1 0.0 4.0 36 56
+ 0.43376 4 5 ack 40 ------- 1 4.0 0.0 36 90
- 0.43376 4 5 ack 40 ------- 1 4.0 0.0 36 90
r 0.43576 4 5 ack 40 ------- 1 4.0 0.0 35 88
+ 0.43576 5 0 ack 40 ------- 1 4.0 0.0 35 88
- 0.43576 5 0 ack 40 ------- 1 4.0 0.0 35 88
r 0.43776 5 0 ack 40 ------- 1 4.0 0.0 34 86
+ 0.43776 0 5 tcp 1040 ------- 1 0.0 4.0 54 91
- 0.43872 0 5 tcp 1040 ------- 1 0.0 4.0 41 65
r 0.4404 0 5 tcp 1040 ------- 1 0.0 4.0 39 61
+ 0.4404 5 4 tcp 1040 ------- 1 0.0 4.0 39 61
- 0.4404 5 4 tcp 1040 ------- 1 0.0 4.0 39 61
r 0.44208 5 4 tcp 1040 ------- 1 0.0 4.0 37 58
+ 0.44208 4 5 ack 40 ------- 1 4.0 0.0 37 92
- 0.44208 4 5 ack 40 ------- 1 4.0 0.0 37 92
r 0.44408 4 5 ack 40 ------- 1 4.0 0.0 36 90
+ 0.44408 5 0 ack 40 ------- 1 4.0 0.0 36 90
- 0.44408 5 0 ack 40 ------- 1 4.0 0.0 36 90
r 0.44608 5 0 ack 40 ------- 1 4.0 0.0 35 88
+ 0.44608 0 5 tcp 1040 ------- 1 0.0 4.0 55 93
- 0.44704 0 5 tcp 1040 ------- 1 0.0 4.0 42 67
r 0.44872 0 5 tcp 1040 ------- 1 0.0 4.0 40 63
+ 0.44872 5 4 tcp 1040 ------- 1 0.0 4.0 40 63
- 0.44872 5 4 tcp 1040 ------- 1 0.0 4.0 40 63
r 0.4504 5 4 tcp 1040 ------- 1 0.0 4.0 38 59
+ 0.4504 4 5 ack 40 ------- 1 4.0 0.0 38 94
- 0.4504 4 5 ack 40 ------- 1 4.0 0.0 38 94
r 0.4524 4 5 ack 40 ------- 1 4.0 0.0 37 92
+ 0.4524 5 0 ack 40 ------- 1 4.0 0.0 37 92
- 0.4524 5 0 ack 40 ------- 1 4.0 0.0 37 92
r 0.4544 5 0 ack 40 ------- 1 4.0 0.0 36 90
+ 0.4544 0 5 tcp 1040 ------- 1 0.0 4.0 56 95
- 0.45536 0 5 tcp 1040 ------- 1 0.0 4.0 43 69
r 0.45704 0 5 tcp 1040 ------- 1 0.0 4.0 41 65
+ 0.45704 5 4 tcp 1040 ------- 1 0.0 4.0 41 65
- 0.45704 5 4 tcp 1040 ------- 1 0.0 4.0 41 65
r 0.45872 5 4 tcp 1040 ------- 1 0.0 4.0 39 61
+ 0.45872 4 5 ack 40 ------- 1 4.0 0.0 39 96
- 0.45872 4 5 ack 40 ------- 1 4.0 0.0 39 96
r 0.46072 4 5 ack 40 ------- 1 4.0 0.0 38 94
+ 0.46072 5 0 ack 40 ------- 1 4.0 0.0 38 94
- 0.46072 5 0 ack 40 ------- 1 4.0 0.0 38 94
r 0.46272 5 0 ack 40 ------- 1 4.0 0.0 37 92
+ 0.46272 0 5 tcp 1040 ------- 1 0.0 4.0 57 97
- 0.46368 0 5 tcp 1040 ------- 1 0.0 4.0 44 71
r 0.46536 0 5 tcp 1040 ------- 1 0.0 4.0 42 67
+ 0.46536 5 4 tcp 1040 ------- 1 0.0 4.0 42 67
- 0.46536 5 4 tcp 1040 ------- 1 0.0 4.0 42 67
r 0.46704 5 4 tcp 1040 ------- 1 0.0 4.0 40 63
+ 0.46704 4 5 ack 40 ------- 1 4.0 0.0 40 98
- 0.46704 4 5 ack 40 ------- 1 4.0 0.0 40 98
r 0.46904 4 5 ack 40 ------- 1 4.0 0.0 39 96
+ 0.46904 5 0 ack 40 ------- 1 4.0 0.0 39 96
- 0.46904 5 0 ack 40 ------- 1 4.0 0.0 39 96
r 0.47104 5 0 ack 40 ------- 1 4.0 0.0 38 94
+ 0.47104 0 5 tcp 1040 ------- 1 0.0 4.0 58 99
- 0.472 0 5 tcp 1040 ------- 1 0.0 4.0 45 73
r 0.47368 0 5 tcp 1040 ------- 1 0.0 4.0 43 69
+ 0.47368 5 4 tcp 1040 ------- 1 0.0 4.0 43 69
- 0.47368 5 4 tcp 1040 ------- 1 0.0 4.0 43 69
r 0.47536 5 4 tcp 1040 ------- 1 0.0 4.0 41 65
+ 0.47536 4 5 ack 40 ------- 1 4.0 0.0 41 100
- 0.47536 4 5 ack 40 ------- 1 4.0 0.0 41 100
r 0.47736 4 5 ack 40 ------- 1 4.0 0.0 40 98
+ 0.47736 5 0 ack 40 ------- 1 4.0 0.0 40 98
- 0.47736 5 0 ack 40 ------- 1 4.0 0.0 40 98
r 0.47936 5 0 ack 40 ------- 1 4.0 0.0 39 96
+ 0.47936 0 5 tcp 1040 ------- 1 0.0 4.0 59 101
- 0.48032 0 5 tcp 1040 ------- 1 0.0 4.0 46 75
r 0.482 0 5 tcp 1040 ------- 1 0.0 4.0 44 71
+ 0.482 5 4 tcp 1040 ------- 1 0.0 4.0 44 71
- 0.482 5 4 tcp 1040 ------- 1 0.0 4.0 44 71
r 0.48368 5 4 tcp 1040 ------- 1 0.0 4.0 42 67
+ 0.48368 4 5 ack 40 ------- 1 4.0 0.0 42 102
- 0.48368 4 5 ack 40 ------- 1 4.0 0.0 42 102
r 0.48568 4 5 ack 40 ------- 1 4.0 0.0 41 100
+ 0.48568 5 0 ack 40 ------- 1 4.0 0.0 41 100
- 0.48568 5 0 ack 40 ------- 1 4.0 0.0 41 100
r 0.48768 5 0 ack 40 ------- 1 4.0 0.0 40 98
+ 0.48768 0 5 tcp 1040 ------- 1 0.0 4.0 60 103
- 0.48864 0 5 tcp 1040 ------- 1 0.0 4.0 47 77
r 0.49032 0 5 tcp 1040 ------- 1 0.0 4.0 45 73
+ 0.49032 5 4 tcp 1040 ------- 1 0.0 4.0 45 73
- 0.49032 5 4 tcp 1040 ------- 1 0.0 4.0 45 73
r 0.492 5 4 tcp 1040 ------- 1 0.0 4.0 43 69
+ 0.492 4 5 ack 40 ------- 1 4.0 0.0 43 104
- 0.492 4 5 ack 40 ------- 1 4.0 0.0 43 104
r 0.494 4 5 ack 40 ------- 1 4.0 0.0 42 102
+ 0.494 5 0 ack 40 ------- 1 4.0 0.0 42 102
- 0.494 5 0 ack 40 ------- 1 4.0 0.0 42 102
r 0.496 5 0 ack 40 ------- 1 4.0 0.0 41 100
+ 0.496 0 5 tcp 1040 ------- 1 0.0 4.0 61 105
- 0.49696 0 5 tcp 1040 ------- 1 0.0 4.0 48 79
r 0.49864 0 5 tcp 1040 ------- 1 0.0 4.0 46 75
+ 0.49864 5 4 tcp 1040 ------- 1 0.0 4.0 46 75
- 0.49864 5 4 tcp 1040 ------- 1 0.0 4.0 46 75
r 0.50032 5 4 tcp 1040 ------- 1 0.0 4.0 44 71
+ 0.50032 4 5 ack 40 ------- 1 4.0 0.0 44 106
- 0.50032 4 5 ack 40 ------- 1 4.0 0.0 44 106
r 0.50232 4 5 ack 40 ------- 1 4.0 0.0 43 104
+ 0.50232 5 0 ack 40 ------- 1 4.0 0.0 43 104
- 0.50232 5 0 ack 40 ------- 1 4.0 0.0 43 104
r 0.50432 5 0 ack 40 ------- 1 4.0 0.0 42 102
+ 0.50432 0 5 tcp 1040 ------- 1 0.0 4.0 62 107
- 0.50528 0 5 tcp 1040 ------- 1 0.0 4.0 49 81
r 0.50696 0 5 tcp 1040 ------- 1 0.0 4.0 47 77
+ 0.50696 5 4 tcp 1040 ------- 1 0.0 4.0 47 77
- 0.50696 5 4 tcp 1040 ------- 1 0.0 4.0 47 77
r 0.50864 5 4 tcp 1040 ------- 1 0.0 4.0 45 73
+ 0.50864 4 5 ack 40 ------- 1 4.0 0.0 45 108
- 0.50864 4 5 ack 40 ------- 1 4.0 0.0 45 108
r 0.51064 4 5 ack 40 ------- 1 4.0 0.0 44 106
+ 0.51064 5 0 ack 40 ------- 1 4.0 0.0 44 106
- 0.51064 5 0 ack 40 ------- 1 4.0 0.0 44 106
r 0.51264 5 0 ack 40 ------- 1 4.0 0.0 43 104
+ 0.51264 0 5 tcp 1040 ------- 1 0.0 4.0 63 109
- 0.5136 0 5 tcp 1040 ------- 1 0.0 4.0 50 83
r 0.51528 0 5 tcp 1040 ------- 1 0.0 4.0 48 79
+ 0.51528 5 4 tcp 1040 ------- 1 0.0 4.0 48 79
- 0.51528 5 4 tcp 1040 ------- 1 0.0 4.0 48 79
r 0.51696 5 4 tcp 1040 ------- 1 0.0 4.0 46 75
+ 0.51696 4 5 ack 40 ------- 1 4.0 0.0 46 110
- 0.51696 4 5 ack 40 ------- 1 4.0 0.0 46 110
r 0.51896 4 5 ack 40 ------- 1 4.0 0.0 45 108
+ 0.51896 5 0 ack 40 ------- 1 4.0 0.0 45 108
- 0.51896 5 0 ack 40 ------- 1 4.0 0.0 45 108
r 0.52096 5 0 ack 40 ------- 1 4.0 0.0 44 106
+ 0.52096 0 5 tcp 1040 ------- 1 0.0 4.0 64 111
- 0.52192 0 5 tcp 1040 ------- 1 0.0 4.0 51 85
r 0.5236 0 5 tcp 1040 ------- 1 0.0 4.0 49 81
+ 0.5236 5 4 tcp 1040 ------- 1 0.0 4.0 49 81
- 0.5236 5 4 tcp 1040 ------- 1 0.0 4.0 49 81
r 0.52528 5 4 tcp 1040 ------- 1 0.0 4.0 47 77
+ 0.52528 4 5 ack 40 ------- 1 4.0 0.0 47 112
- 0.52528 4 5 ack 40 ------- 1 4.0 0.0 47 112
r 0.52728 4 5 ack 40 ------- 1 4.0 0.0 46 110
+ 0.52728 5 0 ack 40 ------- 1 4.0 0.0 46 110
- 0.52728 5 0 ack 40 ------- 1 4.0 0.0 46 110
r 0.52928 5 0 ack 40 ------- 1 4.0 0.0 45 108
+ 0.52928 0 5 tcp 1040 ------- 1 0.0 4.0 65 113
- 0.53024 0 5 tcp 1040 ------- 1 0.0 4.0 52 87
r 0.53192 0 5 tcp 1040 ------- 1 0.0 4.0 50 83
+ 0.53192 5 4 tcp 1040 ------- 1 0.0 4.0 50 83
- 0.53192 5 4 tcp 1040 ------- 1 0.0 4.0 50 83
r 0.5336 5 4 tcp 1040 ------- 1 0.0 4.0 48 79
+ 0.5336 4 5 ack 40 ------- 1 4.0 0.0 48 114
- 0.5336 4 5 ack 40 ------- 1 4.0 0.0 48 114
r 0.5356 4 5 ack 40 ------- 1 4.0 0.0 47 112
+ 0.5356 5 0 ack 40 ------- 1 4.0 0.0 47 112
- 0.5356 5 0 ack 40 ------- 1 4.0 0.0 47 112
r 0.5376 5 0 ack 40 ------- 1 4.0 0.0 46 110
+ 0.5376 0 5 tcp 1040 ------- 1 0.0 4.0 66 115
- 0.53856 0 5 tcp 1040 ------- 1 0.0 4.0 53 89
r 0.54024 0 5 tcp 1040 ------- 1 0.0 4.0 51 85
+ 0.54024 5 4 tcp 1040 ------- 1 0.0 4.0 51 85
- 0.54024 5 4 tcp 1040 ------- 1 0.0 4.0 51 85
r 0.54192 5 4 tcp 1040 ------- 1 0.0 4.0 49 81
+ 0.54192 4 5 ack 40 ------- 1 4.0 0.0 49 116
- 0.54192 4 5 ack 40 ------- 1 4.0 0.0 49 116
r 0.54392 4 5 ack 40 ------- 1 4.0 0.0 48 114
+ 0.54392 5 0 ack 40 ------- 1 4.0 0.0 48 114
- 0.54392 5 0 ack 40 ------- 1 4.0 0.0 48 114
r 0.54592 5 0 ack 40 ------- 1 4.0 0.0 47 112
+ 0.54592 0 5 tcp 1040 ------- 1 0.0 4.0 67 117
- 0.54688 0 5 tcp 1040 ------- 1 0.0 4.0 54 91
r 0.54856 0 5 tcp 1040 ------- 1 0.0 4.0 52 87
+ 0.54856 5 4 tcp 1040 ------- 1 0.0 4.0 52 87
- 0.54856 5 4 tcp 1040 ------- 1 0.0 4.0 52 87
r 0.55024 5 4 tcp 1040 ------- 1 0.0 4.0 50 83
+ 0.55024 4 5 ack 40 ------- 1 4.0 0.0 50 118
- 0.55024 4 5 ack 40 ------- 1 4.0 0.0 50 118
r 0.55224 4 5 ack 40 ------- 1 4.0 0.0 49 116
+ 0.55224 5 0 ack 40 ------- 1 4.0 0.0 49 116
- 0.55224 5 0 ack 40 ------- 1 4.0 0.0 49 116
r 0.55424 5 0 ack 40 ------- 1 4.0 0.0 48 114
+ 0.55424 0 5 tcp 1040 ------- 1 0.0 4.0 68 119
- 0.5552 0 5 tcp 1040 ------- 1 0.0 4.0 55 93
r 0.55688 0 5 tcp 1040 ------- 1 0.0 4.0 53 89
+ 0.55688 5 4 tcp 1040 ------- 1 0.0 4.0 53 89
- 0.55688 5 4 tcp 1040 ------- 1 0.0 4.0 53 89
r 0.55856 5 4 tcp 1040 ------- 1 0.0 4.0 51 85
+ 0.55856 4 5 ack 40 ------- 1 4.0 0.0 51 120
- 0.55856 4 5 ack 40 ------- 1 4.0 0.0 51 120
r 0.56056 4 5 ack 40 ------- 1 4.0 0.0 50 118
+ 0.56056 5 0 ack 40 ------- 1 4.0 0.0 50 118
- 0.56056 5 0 ack 40 ------- 1 4.0 0.0 50 118
r 0.56256 5 0 ack 40 ------- 1 4.0 0.0 49 116
+ 0.56256 0 5 tcp 1040 ------- 1 0.0 4.0 69 121
- 0.56352 0 5 tcp 1040 ------- 1 0.0 4.0 56 95
r 0.5652 0 5 tcp 1040 ------- 1 0.0 4.0 54 91
+ 0.5652 5 4 tcp 1040 ------- 1 0.0 4.0 54 91
- 0.5652 5 4 tcp 1040 ------- 1 0.0 4.0 54 91
r 0.56688 5 4 tcp 1040 ------- 1 0.0 4.0 52 87
+ 0.56688 4 5 ack 40 ------- 1 4.0 0.0 52 122
- 0.56688 4 5 ack 40 ------- 1 4.0 0.0 52 122
r 0.56888 4 5 ack 40 ------- 1 4.0 0.0 51 120
+ 0.56888 5 0 ack 40 ------- 1 4.0 0.0 51 120
- 0.56888 5 0 ack 40 ------- 1 4.0 0.0 51 120