V -t * -v 1.0a5 -a 0
A -t * -n 1 -p 0 -o 0x7fffffff -c 30 -a 1
A -t * -h 1 -m 1073741823 -s 0
n -t * -a 4 -s 4 -S UP -v circle -c black -i black
n -t * -a 0 -s 0 -S UP -v circle -c black -i black
n -t * -a 5 -s 5 -S UP -v circle -c black -i black
n -t * -a 1 -s 1 -S UP -v circle -c black -i black
n -t * -a 2 -s 2 -S UP -v circle -c black -i black
n -t * -a 3 -s 3 -S UP -v circle -c black -i black
l -t * -s 0 -d 1 -S UP -r 1000000 -D 0.01 -c black
l -t * -s 1 -d 2 -S UP -r 1000000 -D 0.01 -c black
l -t * -s 2 -d 3 -S UP -r 1000000 -D 0.01 -c black
l -t * -s 3 -d 4 -S UP -r 1000000 -D 0.01 -c black
l -t * -s 4 -d 5 -S UP -r 1000000 -D 0.01 -c black
l -t * -s 5 -d 0 -S UP -r 1000000 -D 0.01 -c black
+ -t 0 -s 0 -d 5 -p tcp -e 40 -c 1 -i 0 -a 1 -x {0.0 4.0 0 ------- null}
- -t 0 -s 0 -d 5 -p tcp -e 40 -c 1 -i 0 -a 1 -x {0.0 4.0 0 ------- null}
h -t 0 -s 0 -d 5 -p tcp -e 40 -c 1 -i 0 -a 1 -x {0.0 4.0 -1 ------- null}
r -t 0.01032 -s 0 -d 5 -p tcp -e 40 -c 1 -i 0 -a 1 -x {0.0 4.0 0 ------- null}
+ -t 0.01032 -s 5 -d 4 -p tcp -e 40 -c 1 -i 0 -a 1 -x {0.0 4.0 0 ------- null}
- -t 0.01032 -s 5 -d 4 -p tcp -e 40 -c 1 -i 0 -a 1 -x {0.0 4.0 0 ------- null}
h -t 0.01032 -s 5 -d 4 -p tcp -e 40 -c 1 -i 0 -a 1 -x {0.0 4.0 -1 ------- null}
r -t 0.02064 -s 5 -d 4 -p tcp -e 40 -c 1 -i 0 -a 1 -x {0.0 4.0 0 ------- null}
+ -t 0.02064 -s 4 -d 5 -p ack -e 40 -c 1 -i 1 -a 1 -x {4.0 0.0 0 ------- null}
- -t 0.02064 -s 4 -d 5 -p ack -e 40 -c 1 -i 1 -a 1 -x {4.0 0.0 0 ------- null}
h -t 0.02064 -s 4 -d 5 -p ack -e 40 -c 1 -i 1 -a 1 -x {4.0 0.0 -1 ------- null}
r -t 0.03096 -s 4 -d 5 -p ack -e 40 -c 1 -i 1 -a 1 -x {4.0 0.0 0 ------- null}
+ -t 0.03096 -s 5 -d 0 -p ack -e 40 -c 1 -i 1 -a 1 -x {4.0 0.0 0 ------- null}
- -t 0.03096 -s 5 -d 0 -p ack -e 40 -c 1 -i 1 -a 1 -x {4.0 0.0 0 ------- null}
h -t 0.03096 -s 5 -d 0 -p ack -e 40 -c 1 -i 1 -a 1 -x {4.0 0.0 -1 ------- null}
r -t 0.04128 -s 5 -d 0 -p ack -e 40 -c 1 -i 1 -a 1 -x {4.0 0.0 0 ------- null}
+ -t 0.04128 -s 0 -d 5 -p tcp -e 1040 -c 1 -i 2 -a 1 -x {0.0 4.0 1 ------- null}
- -t 0.04128 -s 0 -d 5 -p tcp -e 1040 -c 1 -i 2 -a 1 -x {0.0 4.0 1 ------- null}
h -t 0.04128 -s 0 -d 5 -p tcp -e 1040 -c 1 -i 2 -a 1 -x {0.0 4.0 -1 ------- null}
+ -t 0.04128 -s 0 -d 5 -p tcp -e 1040 -c 1 -i 3 -a 1 -x {0.0 4.0 2 ------- null}
- -t 0.0496 -s 0 -d 5 -p tcp -e 1040 -c 1 -i 3 -a 1 -x {0.0 4.0 2 ------- null}
h -t 0.0496 -s 0 -d 5 -p tcp -e 1040 -c 1 -i 3 -a 1 -x {0.0 4.0 -1 ------- null}
r -t 0.0596 -s 0 -d 5 -p tcp -e 1040 -c 1 -i 2 -a 1 -x {0.0 4.0 1 ------- null}
+ -t 0.0596 -s 5 -d 4 -p tcp -e 1040 -c 1 -i 2 -a 1 -x {0.0 4.0 1 ------- null}
- -t 0.0596 -s 5 -d 4 -p tcp -e 1040 -c 1 -i 2 -a 1 -x {0.0 4.0 1 ------- null}
h -t 0.0596 -s 5 -d 4 -p tcp -e 1040 -c 1 -i 2 -a 1 -x {0.0 4.0 -1 ------- null}
r -t 0.06792 -s 0 -d 5 -p tcp -e 1040 -c 1 -i 3 -a 1 -x {0.0 4.0 2 ------- null}
+ -t 0.06792 -s 5 -d 4 -p tcp -e 1040 -c 1 -i 3 -a 1 -x {0.0 4.0 2 ------- null}
- -t 0.06792 -s 5 -d 4 -p tcp -e 1040 -c 1 -i 3 -a 1 -x {0.0 4.0 2 ------- null}
h -t 0.06792 -s 5 -d 4 -p tcp -e 1040 -c 1 -i 3 -a 1 -x {0.0 4.0 -1 ------- null}
r -t 0.07792 -s 5 -d 4 -p tcp -e 1040 -c 1 -i 2 -a 1 -x {0.0 4.0 1 ------- null}
+ -t 0.07792 -s 4 -d 5 -p ack -e 40 -c 1 -i 4 -a 1 -x {4.0 0.0 1 ------- null}
- -t 0.07792 -s 4 -d 5 -p ack -e 40 -c 1 -i 4 -a 1 -x {4.0 0.0 1 ------- null}
h -t 0.07792 -s 4 -d 5 -p ack -e 40 -c 1 -i 4 -a 1 -x {4.0 0.0 -1 ------- null}
r -t 0.08624 -s 5 -d 4 -p tcp -e 1040 -c 1 -i 3 -a 1 -x {0.0 4.0 2 ------- null}
+ -t 0.08624 -s 4 -d 5 -p ack -e 40 -c 1 -i 5 -a 1 -x {4.0 0.0 2 ------- null}
- -t 0.08624 -s 4 -d 5 -p ack -e 40 -c 1 -i 5 -a 1 -x {4.0 0.0 2 ------- null}
h -t 0.08624 -s 4 -d 5 -p ack -e 40 -c 1 -i 5 -a 1 -x {4.0 0.0 -1 ------- null}
r -t 0.08824 -s 4 -d 5 -p ack -e 40 -c 1 -i 4 -a 1 -x {4.0 0.0 1 ------- null}
+ -t 0.08824 -s 5 -d 0 -p ack -e 40 -c 1 -i 4 -a 1 -x {4.0 0.0 1 ------- null}
- -t 0.08824 -s 5 -d 0 -p ack -e 40 -c 1 -i 4 -a 1 -x {4.0 0.0 1 ------- null}
h -t 0.08824 -s 5 -d 0 -p ack -e 40 -c 1 -i 4 -a 1 -x {4.0 0.0 -1 ------- null}
r -t 0.09656 -s 4 -d 5 -p ack -e 40 -c 1 -i 5 -a 1 -x {4.0 0.0 2 ------- null}
+ -t 0.09656 -s 5 -d 0 -p ack -e 40 -c 1 -i 5 -a 1 -x {4.0 0.0 2 ------- null}
- -t 0.09656 -s 5 -d 0 -p ack -e 40 -c 1 -i 5 -a 1 -x {4.0 0.0 2 ------- null}
h -t 0.09656 -s 5 -d 0 -p ack -e 40 -c 1 -i 5 -a 1 -x {4.0 0.0 -1 ------- null}
r -t 0.09856 -s 5 -d 0 -p ack -e 40 -c 1 -i 4 -a 1 -x {4.0 0.0 1 ------- null}
+ -t 0.09856 -s 0 -d 5 -p tcp -e 1040 -c 1 -i 6 -a 1 -x {0.0 4.0 3 ------- null}
- -t 0.09856 -s 0 -d 5 -p tcp -e 1040 -c 1 -i 6 -a 1 -x {0.0 4.0 3 ------- null}
h -t 0.09856 -s 0 -d 5 -p tcp -e 1040 -c 1 -i 6 -a 1 -x {0.0 4.0 -1 ------- null}
+ -t 0.09856 -s 0 -d 5 -p tcp -e 1040 -c 1 -i 7 -a 1 -x {0.0 4.0 4 ------- null}
- -t 0.10688 -s 0 -d 5 -p tcp -e 1040 -c 1 -i 7 -a 1 -x {0.0 4.0 4 ------- null}
h -t 0.10688 -s 0 -d 5 -p tcp -e 1040 -c 1 -i 7 -a 1 -x {0.0 4.0 -1 ------- null}
r -t 0.10688 -s 5 -d 0 -p ack -e 40 -c 1 -i 5 -a 1 -x {4.0 0.0 2 ------- null}
+ -t 0.10688 -s 0 -d 5 -p tcp -e 1040 -c 1 -i 8 -a 1 -x {0.0 4.0 5 ------- null}
+ -t 0.10688 -s 0 -d 5 -p tcp -e 1040 -c 1 -i 9 -a 1 -x {0.0 4.0 6 ------- null}
- -t 0.1152 -s 0 -d 5 -p tcp -e 1040 -c 1 -i 8 -a 1 -x {0.0 4.0 5 ------- null}
h -t 0.1152 -s 0 -d 5 -p tcp -e 1040 -c 1 -i 8 -a 1 -x {0.0 4.0 -1 ------- null}
r -t 0.11688 -s 0 -d 5 -p tcp -e 1040 -c 1 -i 6 -a 1 -x {0.0 4.0 3 ------- null}
+ -t 0.11688 -s 5 -d 4 -p tcp -e 1040 -c 1 -i 6 -a 1 -x {0.0 4.0 3 ------- null}
- -t 0.11688 -s 5 -d 4 -p tcp -e 1040 -c 1 -i 6 -a 1 -x {0.0 4.0 3 ------- null}
h -t 0.11688 -s 5 -d 4 -p tcp -e 1040 -c 1 -i 6 -a 1 -x {0.0 4.0 -1 ------- null}
- -t 0.12352 -s 0 -d 5 -p tcp -e 1040 -c 1 -i 9 -a 1 -x {0.0 4.0 6 ------- null}
h -t 0.12352 -s 0 -d 5 -p tcp -e 1040 -c 1 -i 9 -a 1 -x {0.0 4.0 -1 ------- null}
r -t 0.1252 -s 0 -d 5 -p tcp -e 1040 -c 1 -i 7 -a 1 -x {0.0 4.0 4 ------- null}
+ -t 0.1252 -s 5 -d 4 -p tcp -e 1040 -c 1 -i 7 -a 1 -x {0.0 4.0 4 ------- null}
- -t 0.1252 -s 5 -d 4 -p tcp -e 1040 -c 1 -i 7 -a 1 -x {0.0 4.0 4 ------- null}
h -t 0.1252 -s 5 -d 4 -p tcp -e 1040 -c 1 -i 7 -a 1 -x {0.0 4.0 -1 ------- null}
r -t 0.13352 -s 0 -d 5 -p tcp -e 1040 -c 1 -i 8 -a 1 -x {0.0 4.0 5 ------- null}
+ -t 0.13352 -s 5 -d 4 -p tcp -e 1040 -c 1 -i 8 -a 1 -x {0.0 4.0 5 ------- null}
- -t 0.13352 -s 5 -d 4 -p tcp -e 1040 -c 1 -i 8 -a 1 -x {0.0 4.0 5 ------- null}
h -t 0.13352 -s 5 -d 4 -p tcp -e 1040 -c 1 -i 8 -a 1 -x {0.0 4.0 -1 ------- null}
r -t 0.1352 -s 5 -d 4 -p tcp -e 1040 -c 1 -i 6 -a 1 -x {0.0 4.0 3 ------- null}
+ -t 0.1352 -s 4 -d 5 -p ack -e 40 -c 1 -i 10 -a 1 -x {4.0 0.0 3 ------- null}
- -t 0.1352 -s 4 -d 5 -p ack -e 40 -c 1 -i 10 -a 1 -x {4.0 0.0 3 ------- null}
h -t 0.1352 -s 4 -d 5 -p ack -e 40 -c 1 -i 10 -a 1 -x {4.0 0.0 -1 ------- null}
r -t 0.14184 -s 0 -d 5 -p tcp -e 1040 -c 1 -i 9 -a 1 -x {0.0 4.0 6 ------- null}
+ -t 0.14184 -s 5 -d 4 -p tcp -e 1040 -c 1 -i 9 -a 1 -x {0.0 4.0 6 ------- null}
- -t 0.14184 -s 5 -d 4 -p tcp -e 1040 -c 1 -i 9 -a 1 -x {0.0 4.0 6 ------- null}
h -t 0.14184 -s 5 -d 4 -p tcp -e 1040 -c 1 -i 9 -a 1 -x {0.0 4.0 -1 ------- null}
r -t 0.14352 -s 5 -d 4 -p tcp -e 1040 -c 1 -i 7 -a 1 -x {0.0 4.0 4 ------- null}
+ -t 0.14352 -s 4 -d 5 -p ack -e 40 -c 1 -i 11 -a 1 -x {4.0 0.0 4 ------- null}
- -t 0.14352 -s 4 -d 5 -p ack -e 40 -c 1 -i 11 -a 1 -x {4.0 0.0 4 ------- null}
h -t 0.14352 -s 4 -d 5 -p ack -e 40 -c 1 -i 11 -a 1 -x {4.0 0.0 -1 ------- null}
r -t 0.14552 -s 4 -d 5 -p ack -e 40 -c 1 -i 10 -a 1 -x {4.0 0.0 3 ------- null}
+ -t 0.14552 -s 5 -d 0 -p ack -e 40 -c 1 -i 10 -a 1 -x {4.0 0.0 3 ------- null}
- -t 0.14552 -s 5 -d 0 -p ack -e 40 -c 1 -i 10 -a 1 -x {4.0 0.0 3 ------- null}
h -t 0.14552 -s 5 -d 0 -p ack -e 40 -c 1 -i 10 -a 1 -x {4.0 0.0 -1 ------- null}
r -t 0.15184 -s 5 -d 4 -p tcp -e 1040 -c 1 -i 8 -a 1 -x {0.0 4.0 5 ------- null}
+ -t 0.15184 -s 4 -d 5 -p ack -e 40 -c 1 -i 12 -a 1 -x {4.0 0.0 5 ------- null}
- -t 0.15184 -s 4 -d 5 -p ack -e 40 -c 1 -i 12 -a 1 -x {4.0 0.0 5 ------- null}
h -t 0.15184 -s 4 -d 5 -p ack -e 40 -c 1 -i 12 -a 1 -x {4.0 0.0 -1 ------- null}
r -t 0.15384 -s 4 -d 5 -p ack -e 40 -c 1 -i 11 -a 1 -x {4.0 0.0 4 ------- null}
+ -t 0.15384 -s 5 -d 0 -p ack -e 40 -c 1 -i 11 -a 1 -x {4.0 0.0 4 ------- null}
- -t 0.15384 -s 5 -d 0 -p ack -e 40 -c 1 -i 11 -a 1 -x {4.0 0.0 4 ------- null}
h -t 0.15384 -s 5 -d 0 -p ack -e 40 -c 1 -i 11 -a 1 -x {4.0 0.0 -1 ------- null}
r -t 0.15584 -s 5 -d 0 -p ack -e 40 -c 1 -i 10 -a 1 -x {4.0 0.0 3 ------- null}
+ -t 0.15584 -s 0 -d 5 -p tcp -e 1040 -c 1 -i 13 -a 1 -x {0.0 4.0 7 ------- null}
- -t 0.15584 -s 0 -d 5 -p tcp -e 1040 -c 1 -i 13 -a 1 -x {0.0 4.0 7 ------- null}
h -t 0.15584 -s 0 -d 5 -p tcp -e 1040 -c 1 -i 13 -a 1 -x {0.0 4.0 -1 ------- null}
+ -t 0.15584 -s 0 -d 5 -p tcp -e 1040 -c 1 -i 14 -a 1 -x {0.0 4.0 8 ------- null}
r -t 0.16016 -s 5 -d 4 -p tcp -e 1040 -c 1 -i 9 -a 1 -x {0.0 4.0 6 ------- null}
+ -t 0.16016 -s 4 -d 5 -p ack -e 40 -c 1 -i 15 -a 1 -x {4.0 0.0 6 ------- null}
- -t 0.16016 -s 4 -d 5 -p ack -e 40 -c 1 -i 15 -a 1 -x {4.0 0.0 6 ------- null}
h -t 0.16016 -s 4 -d 5 -p ack -e 40 -c 1 -i 15 -a 1 -x {4.0 0.0 -1 ------- null}
r -t 0.16216 -s 4 -d 5 -p ack -e 40 -c 1 -i 12 -a 1 -x {4.0 0.0 5 ------- null}
+ -t 0.16216 -s 5 -d 0 -p ack -e 40 -c 1 -i 12 -a 1 -x {4.0 0.0 5 ------- null}
- -t 0.16216 -s 5 -d 0 -p ack -e 40 -c 1 -i 12 -a 1 -x {4.0 0.0 5 ------- null}
h -t 0.16216 -s 5 -d 0 -p ack -e 40 -c 1 -i 12 -a 1 -x {4.0 0.0 -1 ------- null}
- -t 0.16416 -s 0 -d 5 -p tcp -e 1040 -c 1 -i 14 -a 1 -x {0.0 4.0 8 ------- null}
h -t 0.16416 -s 0 -d 5 -p tcp -e 1040 -c 1 -i 14 -a 1 -x {0.0 4.0 -1 ------- null}
r -t 0.16416 -s 5 -d 0 -p ack -e 40 -c 1 -i 11 -a 1 -x {4.0 0.0 4 ------- null}
+ -t 0.16416 -s 0 -d 5 -p tcp -e 1040 -c 1 -i 16 -a 1 -x {0.0 4.0 9 ------- null}
+ -t 0.16416 -s 0 -d 5 -p tcp -e 1040 -c 1 -i 17 -a 1 -x {0.0 4.0 10 ------- null}
r -t 0.17048 -s 4 -d 5 -p ack -e 40 -c 1 -i 15 -a 1 -x {4.0 0.0 6 ------- null}
+ -t 0.17048 -s 5 -d 0 -p ack -e 40 -c 1 -i 15 -a 1 -x {4.0 0.0 6 ------- null}
- -t 0.17048 -s 5 -d 0 -p ack -e 40 -c 1 -i 15 -a 1 -x {4.0 0.0 6 ------- null}
h -t 0.17048 -s 5 -d 0 -p ack -e 40 -c 1 -i 15 -a 1 -x {4.0 0.0 -1 ------- null}
- -t 0.17248 -s 0 -d 5 -p tcp -e 1040 -c 1 -i 16 -a 1 -x {0.0 4.0 9 ------- null}
h -t 0.17248 -s 0 -d 5 -p tcp -e 1040 -c 1 -i 16 -a 1 -x {0.0 4.0 -1 ------- null}
r -t 0.17248 -s 5 -d 0 -p ack -e 40 -c 1 -i 12 -a 1 -x {4.0 0.0 5 ------- null}
+ -t 0.17248 -s 0 -d 5 -p tcp -e 1040 -c 1 -i 18 -a 1 -x {0.0 4.0 11 ------- null}
+ -t 0.17248 -s 0 -d 5 -p tcp -e 1040 -c 1 -i 19 -a 1 -x {0.0 4.0 12 ------- null}
r -t 0.17416 -s 0 -d 5 -p tcp -e 1040 -c 1 -i 13 -a 1 -x {0.0 4.0 7 ------- null}
+ -t 0.17416 -s 5 -d 4 -p tcp -e 1040 -c 1 -i 13 -a 1 -x {0.0 4.0 7 ------- null}
- -t 0.17416 -s 5 -d 4 -p tcp -e 1040 -c 1 -i 13 -a 1 -x {0.0 4.0 7 ------- null}
h -t 0.17416 -s 5 -d 4 -p tcp -e 1040 -c 1 -i 13 -a 1 -x {0.0 4.0 -1 ------- null}
- -t 0.1808 -s 0 -d 5 -p tcp -e 1040 -c 1 -i 17 -a 1 -x {0.0 4.0 10 ------- null}
h -t 0.1808 -s 0 -d 5 -p tcp -e 1040 -c 1 -i 17 -a 1 -x {0.0 4.0 -1 ------- null}
r -t 0.1808 -s 5 -d 0 -p ack -e 40 -c 1 -i 15 -a 1 -x {4.0 0.0 6 ------- null}
+ -t 0.1808 -s 0 -d 5 -p tcp -e 1040 -c 1 -i 20 -a 1 -x {0.0 4.0 13 ------- null}
+ -t 0.1808 -s 0 -d 5 -p tcp -e 1040 -c 1 -i 21 -a 1 -x {0.0 4.0 14 ------- null}
r -t 0.18248 -s 0 -d 5 -p tcp -e 1040 -c 1 -i 14 -a 1 -x {0.0 4.0 8 ------- null}
+ -t 0.18248 -s 5 -d 4 -p tcp -e 1040 -c 1 -i 14 -a 1 -x {0.0 4.0 8 ------- null}
- -t 0.18248 -s 5 -d 4 -p tcp -e 1040 -c 1 -i 14 -a 1 -x {0.0 4.0 8 ------- null}
h -t 0.18248 -s 5 -d 4 -p tcp -e 1040 -c 1 -i 14 -a 1 -x {0.0 4.0 -1 ------- null}
- -t 0.18912 -s 0 -d 5 -p tcp -e 1040 -c 1 -i 18 -a 1 -x {0.0 4.0 11 ------- null}
h -t 0.18912 -s 0 -d 5 -p tcp -e 1040 -c 1 -i 18 -a 1 -x {0.0 4.0 -1 ------- null}
r -t 0.1908 -s 0 -d 5 -p tcp -e 1040 -c 1 -i 16 -a 1 -x {0.0 4.0 9 ------- null}
+ -t 0.1908 -s 5 -d 4 -p tcp -e 1040 -c 1 -i 16 -a 1 -x {0.0 4.0 9 ------- null}
- -t 0.1908 -s 5 -d 4 -p tcp -e 1040 -c 1 -i 16 -a 1 -x {0.0 4.0 9 ------- null}
h -t 0.1908 -s 5 -d 4 -p tcp -e 1040 -c 1 -i 16 -a 1 -x {0.0 4.0 -1 ------- null}
r -t 0.19248 -s 5 -d 4 -p tcp -e 1040 -c 1 -i 13 -a 1 -x {0.0 4.0 7 ------- null}
+ -t 0.19248 -s 4 -d 5 -p ack -e 40 -c 1 -i 22 -a 1 -x {4.0 0.0 7 ------- null}
- -t 0.19248 -s 4 -d 5 -p ack -e 40 -c 1 -i 22 -a 1 -x {4.0 0.0 7 ------- null}
h -t 0.19248 -s 4 -d 5 -p ack -e 40 -c 1 -i 22 -a 1 -x {4.0 0.0 -1 ------- null}
- -t 0.19744 -s 0 -d 5 -p tcp -e 1040 -c 1 -i 19 -a 1 -x {0.0 4.0 12 ------- null}
h -t 0.19744 -s 0 -d 5 -p tcp -e 1040 -c 1 -i 19 -a 1 -x {0.0 4.0 -1 ------- null}
r -t 0.19912 -s 0 -d 5 -p tcp -e 1040 -c 1 -i 17 -a 1 -x {0.0 4.0 10 ------- null}
+ -t 0.19912 -s 5 -d 4 -p tcp -e 1040 -c 1 -i 17 -a 1 -x {0.0 4.0 10 ------- null}
- -t 0.19912 -s 5 -d 4 -p tcp -e 1040 -c 1 -i 17 -a 1 -x {0.0 4.0 10 ------- null}
h -t 0.19912 -s 5 -d 4 -p tcp -e 1040 -c 1 -i 17 -a 1 -x {0.0 4.0 -1 ------- null}
r -t 0.2008 -s 5 -d 4 -p tcp -e 1040 -c 1 -i 14 -a 1 -x {0.0 4.0 8 ------- null}
+ -t 0.2008 -s 4 -d 5 -p ack -e 40 -c 1 -i 23 -a 1 -x {4.0 0.0 8 ------- null}
- -t 0.2008 -s 4 -d 5 -p ack -e 40 -c 1 -i 23 -a 1 -x {4.0 0.0 8 ------- null}
h -t 0.2008 -s 4 -d 5 -p ack -e 40 -c 1 -i 23 -a 1 -x {4.0 0.0 -1 ------- null}
r -t 0.2028 -s 4 -d 5 -p ack -e 40 -c 1 -i 22 -a 1 -x {4.0 0.0 7 ------- null}
+ -t 0.2028 -s 5 -d 0 -p ack -e 40 -c 1 -i 22 -a 1 -x {4.0 0.0 7 ------- null}
- -t 0.2028 -s 5 -d 0 -p ack -e 40 -c 1 -i 22 -a 1 -x {4.0 0.0 7 ------- null}
h -t 0.2028 -s 5 -d 0 -p ack -e 40 -c 1 -i 22 -a 1 -x {4.0 0.0 -1 ------- null}
- -t 0.20576 -s 0 -d 5 -p tcp -e 1040 -c 1 -i 20 -a 1 -x {0.0 4.0 13 ------- null}
h -t 0.20576 -s 0 -d 5 -p tcp -e 1040 -c 1 -i 20 -a 1 -x {0.0 4.0 -1 ------- null}
r -t 0.20744 -s 0 -d 5 -p tcp -e 1040 -c 1 -i 18 -a 1 -x {0.0 4.0 11 ------- null}
+ -t 0.20744 -s 5 -d 4 -p tcp -e 1040 -c 1 -i 18 -a 1 -x {0.0 4.0 11 ------- null}
- -t 0.20744 -s 5 -d 4 -p tcp -e 1040 -c 1 -i 18 -a 1 -x {0.0 4.0 11 ------- null}
h -t 0.20744 -s 5 -d 4 -p tcp -e 1040 -c 1 -i 18 -a 1 -x {0.0 4.0 -1 ------- null}
r -t 0.20912 -s 5 -d 4 -p tcp -e 1040 -c 1 -i 16 -a 1 -x {0.0 4.0 9 ------- null}
+ -t 0.20912 -s 4 -d 5 -p ack -e 40 -c 1 -i 24 -a 1 -x {4.0 0.0 9 ------- null}
- -t 0.20912 -s 4 -d 5 -p ack -e 40 -c 1 -i 24 -a 1 -x {4.0 0.0 9 ------- null}
h -t 0.20912 -s 4 -d 5 -p ack -e 40 -c 1 -i 24 -a 1 -x {4.0 0.0 -1 ------- null}
r -t 0.21112 -s 4 -d 5 -p ack -e 40 -c 1 -i 23 -a 1 -x {4.0 0.0 8 ------- null}
+ -t 0.21112 -s 5 -d 0 -p ack -e 40 -c 1 -i 23 -a 1 -x {4.0 0.0 8 ------- null}
- -t 0.21112 -s 5 -d 0 -p ack -e 40 -c 1 -i 23 -a 1 -x {4.0 0.0 8 ------- null}
h -t 0.21112 -s 5 -d 0 -p ack -e 40 -c 1 -i 23 -a 1 -x {4.0 0.0 -1 ------- null}
r -t 0.21312 -s 5 -d 0 -p ack -e 40 -c 1 -i 22 -a 1 -x {4.0 0.0 7 ------- null}
+ -t 0.21312 -s 0 -d 5 -p tcp -e 1040 -c 1 -i 25 -a 1 -x {0.0 4.0 15 ------- null}
+ -t 0.21312 -s 0 -d 5 -p tcp -e 1040 -c 1 -i 26 -a 1 -x {0.0 4.0 16 ------- null}
- -t 0.21408 -s 0 -d 5 -p tcp -e 1040 -c 1 -i 21 -a 1 -x {0.0 4.0 14 ------- null}
h -t 0.21408 -s 0 -d 5 -p tcp -e 1040 -c 1 -i 21 -a 1 -x {0.0 4.0 -1 ------- null}
r -t 0.21576 -s 0 -d 5 -p tcp -e 1040 -c 1 -i 19 -a 1 -x {0.0 4.0 12 ------- null}
+ -t 0.21576 -s 5 -d 4 -p tcp -e 1040 -c 1 -i 19 -a 1 -x {0.0 4.0 12 ------- null}
- -t 0.21576 -s 5 -d 4 -p tcp -e 1040 -c 1 -i 19 -a 1 -x {0.0 4.0 12 ------- null}
h -t 0.21576 -s 5 -d 4 -p tcp -e 1040 -c 1 -i 19 -a 1 -x {0.0 4.0 -1 ------- null}
r -t 0.21744 -s 5 -d 4 -p tcp -e 1040 -c 1 -i 17 -a 1 -x {0.0 4.0 10 ------- null}
+ -t 0.21744 -s 4 -d 5 -p ack -e 40 -c 1 -i 27 -a 1 -x {4.0 0.0 10 ------- null}
- -t 0.21744 -s 4 -d 5 -p ack -e 40 -c 1 -i 27 -a 1 -x {4.0 0.0 10 ------- null}
h -t 0.21744 -s 4 -d 5 -p ack -e 40 -c 1 -i 27 -a 1 -x {4.0 0.0 -1 ------- null}
r -t 0.21944 -s 4 -d 5 -p ack -e 40 -c 1 -i 24 -a 1 -x {4.0 0.0 9 ------- null}
+ -t 0.21944 -s 5 -d 0 -p ack -e 40 -c 1 -i 24 -a 1 -x {4.0 0.0 9 ------- null}
- -t 0.21944 -s 5 -d 0 -p ack -e 40 -c 1 -i 24 -a 1 -x {4.0 0.0 9 ------- null}
h -t 0.21944 -s 5 -d 0 -p ack -e 40 -c 1 -i 24 -a 1 -x {4.0 0.0 -1 ------- null}
r -t 0.22144 -s 5 -d 0 -p ack -e 40 -c 1 -i 23 -a 1 -x {4.0 0.0 8 ------- null}
+ -t 0.22144 -s 0 -d 5 -p tcp -e 1040 -c 1 -i 28 -a 1 -x {0.0 4.0 17 ------- null}
+ -t 0.22144 -s 0 -d 5 -p tcp -e 1040 -c 1 -i 29 -a 1 -x {0.0 4.0 18 ------- null}
- -t 0.2224 -s 0 -d 5 -p tcp -e 1040 -c 1 -i 25 -a 1 -x {0.0 4.0 15 ------- null}
h -t 0.2224 -s 0 -d 5 -p tcp -e 1040 -c 1 -i 25 -a 1 -x {0.0 4.0 -1 ------- null}
r -t 0.22408 -s 0 -d 5 -p tcp -e 1040 -c 1 -i 20 -a 1 -x {0.0 4.0 13 ------- null}
+ -t 0.22408 -s 5 -d 4 -p tcp -e 1040 -c 1 -i 20 -a 1 -x {0.0 4.0 13 ------- null}
- -t 0.22408 -s 5 -d 4 -p tcp -e 1040 -c 1 -i 20 -a 1 -x {0.0 4.0 13 ------- null}
h -t 0.22408 -s 5 -d 4 -p tcp -e 1040 -c 1 -i 20 -a 1 -x {0.0 4.0 -1 ------- null}
r -t 0.22576 -s 5 -d 4 -p tcp -e 1040 -c 1 -i 18 -a 1 -x {0.0 4.0 11 ------- null}
+ -t 0.22576 -s 4 -d 5 -p ack -e 40 -c 1 -i 30 -a 1 -x {4.0 0.0 11 ------- null}
- -t 0.22576 -s 4 -d 5 -p ack -e 40 -c 1 -i 30 -a 1 -x {4.0 0.0 11 ------- null}
h -t 0.22576 -s 4 -d 5 -p ack -e 40 -c 1 -i 30 -a 1 -x {4.0 0.0 -1 ------- null}
r -t 0.22776 -s 4 -d 5 -p ack -e 40 -c 1 -i 27 -a 1 -x {4.0 0.0 10 ------- null}
+ -t 0.22776 -s 5 -d 0 -p ack -e 40 -c 1 -i 27 -a 1 -x {4.0 0.0 10 ------- null}
- -t 0.22776 -s 5 -d 0 -p ack -e 40 -c 1 -i 27 -a 1 -x {4.0 0.0 10 ------- null}
h -t 0.22776 -s 5 -d 0 -p ack -e 40 -c 1 -i 27 -a 1 -x {4.0 0.0 -1 ------- null}
r -t 0.22976 -s 5 -d 0 -p ack -e 40 -c 1 -i 24 -a 1 -x {4.0 0.0 9 ------- null}
+ -t 0.22976 -s 0 -d 5 -p tcp -e 1040 -c 1 -i 31 -a 1 -x {0.0 4.0 19 ------- null}
+ -t 0.22976 -s 0 -d 5 -p tcp -e 1040 -c 1 -i 32 -a 1 -x {0.0 4.0 20 ------- null}
- -t 0.23072 -s 0 -d 5 -p tcp -e 1040 -c 1 -i 26 -a 1 -x {0.0 4.0 16 ------- null}
h -t 0.23072 -s 0 -d 5 -p tcp -e 1040 -c 1 -i 26 -a 1 -x {0.0 4.0 -1 ------- null}
r -t 0.2324 -s 0 -d 5 -p tcp -e 1040 -c 1 -i 21 -a 1 -x {0.0 4.0 14 ------- null}
+ -t 0.2324 -s 5 -d 4 -p tcp -e 1040 -c 1 -i 21 -a 1 -x {0.0 4.0 14 ------- null}
- -t 0.2324 -s 5 -d 4 -p tcp -e 1040 -c 1 -i 21 -a 1 -x {0.0 4.0 14 ------- null}
h -t 0.2324 -s 5 -d 4 -p tcp -e 1040 -c 1 -i 21 -a 1 -x {0.0 4.0 -1 ------- null}
r -t 0.23408 -s 5 -d 4 -p tcp -e 1040 -c 1 -i 19 -a 1 -x {0.0 4.0 12 ------- null}
+ -t 0.23408 -s 4 -d 5 -p ack -e 40 -c 1 -i 33 -a 1 -x {4.0 0.0 12 ------- null}
- -t 0.23408 -s 4 -d 5 -p ack -e 40 -c 1 -i 33 -a 1 -x {4.0 0.0 12 ------- null}
h -t 0.23408 -s 4 -d 5 -p ack -e 40 -c 1 -i 33 -a 1 -x {4.0 0.0 -1 ------- null}
r -t 0.23608 -s 4 -d 5 -p ack -e 40 -c 1 -i 30 -a 1 -x {4.0 0.0 11 ------- null}
+ -t 0.23608 -s 5 -d 0 -p ack -e 40 -c 1 -i 30 -a 1 -x {4.0 0.0 11 ------- null}
- -t 0.23608 -s 5 -d 0 -p ack -e 40 -c 1 -i 30 -a 1 -x {4.0 0.0 11 ------- null}
h -t 0.23608 -s 5 -d 0 -p ack -e 40 -c 1 -i 30 -a 1 -x {4.0 0.0 -1 ------- null}
r -t 0.23808 -s 5 -d 0 -p ack -e 40 -c 1 -i 27 -a 1 -x {4.0 0.0 10 ------- null}
+ -t 0.23808 -s 0 -d 5 -p tcp -e 1040 -c 1 -i 34 -a 1 -x {0.0 4.0 21 ------- null}
+ -t 0.23808 -s 0 -d 5 -p tcp -e 1040 -c 1 -i 35 -a 1 -x {0.0 4.0 22 ------- null}
- -t 0.23904 -s 0 -d 5 -p tcp -e 1040 -c 1 -i 28 -a 1 -x {0.0 4.0 17 ------- null}
h -t 0.23904 -s 0 -d 5 -p tcp -e 1040 -c 1 -i 28 -a 1 -x {0.0 4.0 -1 ------- null}
r -t 0.24072 -s 0 -d 5 -p tcp -e 1040 -c 1 -i 25 -a 1 -x {0.0 4.0 15 ------- null}
+ -t 0.24072 -s 5 -d 4 -p tcp -e 1040 -c 1 -i 25 -a 1 -x {0.0 4.0 15 ------- null}
- -t 0.24072 -s 5 -d 4 -p tcp -e 1040 -c 1 -i 25 -a 1 -x {0.0 4.0 15 ------- null}
h -t 0.24072 -s 5 -d 4 -p tcp -e 1040 -c 1 -i 25 -a 1 -x {0.0 4.0 -1 ------- null}
r -t 0.2424 -s 5 -d 4 -p tcp -e 1040 -c 1 -i 20 -a 1 -x {0.0 4.0 13 ------- null}
+ -t 0.2424 -s 4 -d 5 -p ack -e 40 -c 1 -i 36 -a 1 -x {4.0 0.0 13 ------- null}
- -t 0.2424 -s 4 -d 5 -p ack -e 40 -c 1 -i 36 -a 1 -x {4.0 0.0 13 ------- null}
h -t 0.2424 -s 4 -d 5 -p ack -e 40 -c 1 -i 36 -a 1 -x {4.0 0.0 -1 ------- null}
r -t 0.2444 -s 4 -d 5 -p ack -e 40 -c 1 -i 33 -a 1 -x {4.0 0.0 12 ------- null}
+ -t 0.2444 -s 5 -d 0 -p ack -e 40 -c 1 -i 33 -a 1 -x {4.0 0.0 12 ------- null}
- -t 0.2444 -s 5 -d 0 -p ack -e 40 -c 1 -i 33 -a 1 -x {4.0 0.0 12 ------- null}
h -t 0.2444 -s 5 -d 0 -p ack -e 40 -c 1 -i 33 -a 1 -x {4.0 0.0 -1 ------- null}
r -t 0.2464 -s 5 -d 0 -p ack -e 40 -c 1 -i 30 -a 1 -x {4.0 0.0 11 ------- null}
+ -t 0.2464 -s 0 -d 5 -p tcp -e 1040 -c 1 -i 37 -a 1 -x {0.0 4.0 23 ------- null}
+ -t 0.2464 -s 0 -d 5 -p tcp -e 1040 -c 1 -i 38 -a 1 -x {0.0 4.0 24 ------- null}
- -t 0.24736 -s 0 -d 5 -p tcp -e 1040 -c 1 -i 29 -a 1 -x {0.0 4.0 18 ------- null}
h -t 0.24736 -s 0 -d 5 -p tcp -e 1040 -c 1 -i 29 -a 1 -x {0.0 4.0 -1 ------- null}
r -t 0.24904 -s 0 -d 5 -p tcp -e 1040 -c 1 -i 26 -a 1 -x {0.0 4.0 16 ------- null}
+ -t 0.24904 -s 5 -d 4 -p tcp -e 1040 -c 1 -i 26 -a 1 -x {0.0 4.0 16 ------- null}
- -t 0.24904 -s 5 -d 4 -p tcp -e 1040 -c 1 -i 26 -a 1 -x {0.0 4.0 16 ------- null}
h -t 0.24904 -s 5 -d 4 -p tcp -e 1040 -c 1 -i 26 -a 1 -x {0.0 4.0 -1 ------- null}
r -t 0.25072 -s 5 -d 4 -p tcp -e 1040 -c 1 -i 21 -a 1 -x {0.0 4.0 14 ------- null}
+ -t 0.25072 -s 4 -d 5 -p ack -e 40 -c 1 -i 39 -a 1 -x {4.0 0.0 14 ------- null}
- -t 0.25072 -s 4 -d 5 -p ack -e 40 -c 1 -i 39 -a 1 -x {4.0 0.0 14 ------- null}
h -t 0.25072 -s 4 -d 5 -p ack -e 40 -c 1 -i 39 -a 1 -x {4.0 0.0 -1 ------- null}
r -t 0.25272 -s 4 -d 5 -p ack -e 40 -c 1 -i 36 -a 1 -x {4.0 0.0 13 ------- null}
+ -t 0.25272 -s 5 -d 0 -p ack -e 40 -c 1 -i 36 -a 1 -x {4.0 0.0 13 ------- null}
- -t 0.25272 -s 5 -d 0 -p ack -e 40 -c 1 -i 36 -a 1 -x {4.0 0.0 13 ------- null}
h -t 0.25272 -s 5 -d 0 -p ack -e 40 -c 1 -i 36 -a 1 -x {4.0 0.0 -1 ------- null}
r -t 0.25472 -s 5 -d 0 -p ack -e 40 -c 1 -i 33 -a 1 -x {4.0 0.0 12 ------- null}
+ -t 0.25472 -s 0 -d 5 -p tcp -e 1040 -c 1 -i 40 -a 1 -x {0.0 4.0 25 ------- null}
+ -t 0.25472 -s 0 -d 5 -p tcp -e 1040 -c 1 -i 41 -a 1 -x {0.0 4.0 26 ------- null}
- -t 0.25568 -s 0 -d 5 -p tcp -e 1040 -c 1 -i 31 -a 1 -x {0.0 4.0 19 ------- null}
h -t 0.25568 -s 0 -d 5 -p tcp -e 1040 -c 1 -i 31 -a 1 -x {0.0 4.0 -1 ------- null}
r -t 0.25736 -s 0 -d 5 -p tcp -e 1040 -c 1 -i 28 -a 1 -x {0.0 4.0 17 ------- null}
+ -t 0.25736 -s 5 -d 4 -p tcp -e 1040 -c 1 -i 28 -a 1 -x {0.0 4.0 17 ------- null}
- -t 0.25736 -s 5 -d 4 -p tcp -e 1040 -c 1 -i 28 -a 1 -x {0.0 4.0 17 ------- null}
h -t 0.25736 -s 5 -d 4 -p tcp -e 1040 -c 1 -i 28 -a 1 -x {0.0 4.0 -1 ------- null}
r -t 0.25904 -s 5 -d 4 -p tcp -e 1040 -c 1 -i 25 -a 1 -x {0.0 4.0 15 ------- null}
+ -t 0.25904 -s 4 -d 5 -p ack -e 40 -c 1 -i 42 -a 1 -x {4.0 0.0 15 ------- null}
- -t 0.25904 -s 4 -d 5 -p ack -e 40 -c 1 -i 42 -a 1 -x {4.0 0.0 15 ------- null}
h -t 0.25904 -s 4 -d 5 -p ack -e 40 -c 1 -i 42 -a 1 -x {4.0 0.0 -1 ------- null}
r -t 0.26104 -s 4 -d 5 -p ack -e 40 -c 1 -i 39 -a 1 -x {4.0 0.0 14 ------- null}
+ -t 0.26104 -s 5 -d 0 -p ack -e 40 -c 1 -i 39 -a 1 -x {4.0 0.0 14 ------- null}
- -t 0.26104 -s 5 -d 0 -p ack -e 40 -c 1 -i 39 -a 1 -x {4.0 0.0 14 ------- null}
h -t 0.26104 -s 5 -d 0 -p ack -e 40 -c 1 -i 39 -a 1 -x {4.0 0.0 -1 ------- null}
r -t 0.26304 -s 5 -d 0 -p ack -e 40 -c 1 -i 36 -a 1 -x {4.0 0.0 13 ------- null}
+ -t 0.26304 -s 0 -d 5 -p tcp -e 1040 -c 1 -i 43 -a 1 -x {0.0 4.0 27 ------- null}
+ -t 0.26304 -s 0 -d 5 -p tcp -e 1040 -c 1 -i 44 -a 1 -x {0.0 4.0 28 ------- null}
- -t 0.264 -s 0 -d 5 -p tcp -e 1040 -c 1 -i 32 -a 1 -x {0.0 4.0 20 ------- null}
h -t 0.264 -s 0 -d 5 -p tcp -e 1040 -c 1 -i 32 -a 1 -x {0.0 4.0 -1 ------- null}
r -t 0.26568 -s 0 -d 5 -p tcp -e 1040 -c 1 -i 29 -a 1 -x {0.0 4.0 18 ------- null}
+ -t 0.26568 -s 5 -d 4 -p tcp -e 1040 -c 1 -i 29 -a 1 -x {0.0 4.0 18 ------- null}
- -t 0.26568 -s 5 -d 4 -p tcp -e 1040 -c 1 -i 29 -a 1 -x {0.0 4.0 18 ------- null}
h -t 0.26568 -s 5 -d 4 -p tcp -e 1040 -c 1 -i 29 -a 1 -x {0.0 4.0 -1 ------- null}
r -t 0.26736 -s 5 -d 4 -p tcp -e 1040 -c 1 -i 26 -a 1 -x {0.0 4.0 16 ------- null}
+ -t 0.26736 -s 4 -d 5 -p ack -e 40 -c 1 -i 45 -a 1 -x {4.0 0.0 16 ------- null}
- -t 0.26736 -s 4 -d 5 -p ack -e 40 -c 1 -i 45 -a 1 -x {4.0 0.0 16 ------- null}
h -t 0.26736 -s 4 -d 5 -p ack -e 40 -c 1 -i 45 -a 1 -x {4.0 0.0 -1 ------- null}
r -t 0.26936 -s 4 -d 5 -p ack -e 40 -c 1 -i 42 -a 1 -x {4.0 0.0 15 ------- null}
+ -t 0.26936 -s 5 -d 0 -p ack -e 40 -c 1 -i 42 -a 1 -x {4.0 0.0 15 ------- null}
- -t 0.26936 -s 5 -d 0 -p ack -e 40 -c 1 -i 42 -a 1 -x {4.0 0.0 15 ------- null}
h -t 0.26936 -s 5 -d 0 -p ack -e 40 -c 1 -i 42 -a 1 -x {4.0 0.0 -1 ------- null}
r -t 0.27136 -s 5 -d 0 -p ack -e 40 -c 1 -i 39 -a 1 -x {4.0 0.0 14 ------- null}
+ -t 0.27136 -s 0 -d 5 -p tcp -e 1040 -c 1 -i 46 -a 1 -x {0.0 4.0 29 ------- null}
+ -t 0.27136 -s 0 -d 5 -p tcp -e 1040 -c 1 -i 47 -a 1 -x {0.0 4.0 30 ------- null}
- -t 0.27232 -s 0 -d 5 -p tcp -e 1040 -c 1 -i 34 -a 1 -x {0.0 4.0 21 ------- null}
h -t 0.27232 -s 0 -d 5 -p tcp -e 1040 -c 1 -i 34 -a 1 -x {0.0 4.0 -1 ------- null}
r -t 0.274 -s 0 -d 5 -p tcp -e 1040 -c 1 -i 31 -a 1 -x {0.0 4.0 19 ------- null}
+ -t 0.274 -s 5 -d 4 -p tcp -e 1040 -c 1 -i 31 -a 1 -x {0.0 4.0 19 ------- null}
- -t 0.274 -s 5 -d 4 -p tcp -e 1040 -c 1 -i 31 -a 1 -x {0.0 4.0 19 ------- null}
h -t 0.274 -s 5 -d 4 -p tcp -e 1040 -c 1 -i 31 -a 1 -x {0.0 4.0 -1 ------- null}
r -t 0.27568 -s 5 -d 4 -p tcp -e 1040 -c 1 -i 28 -a 1 -x {0.0 4.0 17 ------- null}
+ -t 0.27568 -s 4 -d 5 -p ack -e 40 -c 1 -i 48 -a 1 -x {4.0 0.0 17 ------- null}
- -t 0.27568 -s 4 -d 5 -p ack -e 40 -c 1 -i 48 -a 1 -x {4.0 0.0 17 ------- null}
h -t 0.27568 -s 4 -d 5 -p ack -e 40 -c 1 -i 48 -a 1 -x {4.0 0.0 -1 ------- null}
r -t 0.27768 -s 4 -d 5 -p ack -e 40 -c 1 -i 45 -a 1 -x {4.0 0.0 16 ------- null}
+ -t 0.27768 -s 5 -d 0 -p ack -e 40 -c 1 -i 45 -a 1 -x {4.0 0.0 16 ------- null}
- -t 0.27768 -s 5 -d 0 -p ack -e 40 -c 1 -i 45 -a 1 -x {4.0 0.0 16 ------- null}
h -t 0.27768 -s 5 -d 0 -p ack -e 40 -c 1 -i 45 -a 1 -x {4.0 0.0 -1 ------- null}
r -t 0.27968 -s 5 -d 0 -p ack -e 40 -c 1 -i 42 -a 1 -x {4.0 0.0 15 ------- null}
+ -t 0.27968 -s 0 -d 5 -p tcp -e 1040 -c 1 -i 49 -a 1 -x {0.0 4.0 31 ------- null}
+ -t 0.27968 -s 0 -d 5 -p tcp -e 1040 -c 1 -i 50 -a 1 -x {0.0 4.0 32 ------- null}
- -t 0.28064 -s 0 -d 5 -p tcp -e 1040 -c 1 -i 35 -a 1 -x {0.0 4.0 22 ------- null}
h -t 0.28064 -s 0 -d 5 -p tcp -e 1040 -c 1 -i 35 -a 1 -x {0.0 4.0 -1 ------- null}
r -t 0.28232 -s 0 -d 5 -p tcp -e 1040 -c 1 -i 32 -a 1 -x {0.0 4.0 20 ------- null}
+ -t 0.28232 -s 5 -d 4 -p tcp -e 1040 -c 1 -i 32 -a 1 -x {0.0 4.0 20 ------- null}
- -t 0.28232 -s 5 -d 4 -p tcp -e 1040 -c 1 -i 32 -a 1 -x {0.0 4.0 20 ------- null}
h -t 0.28232 -s 5 -d 4 -p tcp -e 1040 -c 1 -i 32 -a 1 -x {0.0 4.0 -1 ------- null}
r -t 0.284 -s 5 -d 4 -p tcp -e 1040 -c 1 -i 29 -a 1 -x {0.0 4.0 18 ------- null}
+ -t 0.284 -s 4 -d 5 -p ack -e 40 -c 1 -i 51 -a 1 -x {4.0 0.0 18 ------- null}
- -t 0.284 -s 4 -d 5 -p ack -e 40 -c 1 -i 51 -a 1 -x {4.0 0.0 18 ------- null}
h -t 0.284 -s 4 -d 5 -p ack -e 40 -c 1 -i 51 -a 1 -x {4.0 0.0 -1 ------- null}
r -t 0.286 -s 4 -d 5 -p ack -e 40 -c 1 -i 48 -a 1 -x {4.0 0.0 17 ------- null}
+ -t 0.286 -s 5 -d 0 -p ack -e 40 -c 1 -i 48 -a 1 -x {4.0 0.0 17 ------- null}
- -t 0.286 -s 5 -d 0 -p ack -e 40 -c 1 -i 48 -a 1 -x {4.0 0.0 17 ------- null}
h -t 0.286 -s 5 -d 0 -p ack -e 40 -c 1 -i 48 -a 1 -x {4.0 0.0 -1 ------- null}
r -t 0.288 -s 5 -d 0 -p ack -e 40 -c 1 -i 45 -a 1 -x {4.0 0.0 16 ------- null}
+ -t 0.288 -s 0 -d 5 -p tcp -e 1040 -c 1 -i 52 -a 1 -x {0.0 4.0 33 ------- null}
+ -t 0.288 -s 0 -d 5 -p tcp -e 1040 -c 1 -i 53 -a 1 -x {0.0 4.0 34 ------- null}
- -t 0.28896 -s 0 -d 5 -p tcp -e 1040 -c 1 -i 37 -a 1 -x {0.0 4.0 23 ------- null}
h -t 0.28896 -s 0 -d 5 -p tcp -e 1040 -c 1 -i 37 -a 1 -x {0.0 4.0 -1 ------- null}
r -t 0.29064 -s 0 -d 5 -p tcp -e 1040 -c 1 -i 34 -a 1 -x {0.0 4.0 21 ------- null}
+ -t 0.29064 -s 5 -d 4 -p tcp -e 1040 -c 1 -i 34 -a 1 -x {0.0 4.0 21 ------- null}
- -t 0.29064 -s 5 -d 4 -p tcp -e 1040 -c 1 -i 34 -a 1 -x {0.0 4.0 21 ------- null}
h -t 0.29064 -s 5 -d 4 -p tcp -e 1040 -c 1 -i 34 -a 1 -x {0.0 4.0 -1 ------- null}
r -t 0.29232 -s 5 -d 4 -p tcp -e 1040 -c 1 -i 31 -a 1 -x {0.0 4.0 19 ------- null}
+ -t 0.29232 -s 4 -d 5 -p ack -e 40 -c 1 -i 54 -a 1 -x {4.0 0.0 19 ------- null}
- -t 0.29232 -s 4 -d 5 -p ack -e 40 -c 1 -i 54 -a 1 -x {4.0 0.0 19 ------- null}
h -t 0.29232 -s 4 -d 5 -p ack -e 40 -c 1 -i 54 -a 1 -x {4.0 0.0 -1 ------- null}
r -t 0.29432 -s 4 -d 5 -p ack -e 40 -c 1 -i 51 -a 1 -x {4.0 0.0 18 ------- null}
+ -t 0.29432 -s 5 -d 0 -p ack -e 40 -c 1 -i 51 -a 1 -x {4.0 0.0 18 ------- null}
- -t 0.29432 -s 5 -d 0 -p ack -e 40 -c 1 -i 51 -a 1 -x {4.0 0.0 18 ------- null}
h -t 0.29432 -s 5 -d 0 -p ack -e 40 -c 1 -i 51 -a 1 -x {4.0 0.0 -1 ------- null}
r -t 0.29632 -s 5 -d 0 -p ack -e 40 -c 1 -i 48 -a 1 -x {4.0 0.0 17 ------- null}
+ -t 0.29632 -s 0 -d 5 -p tcp -e 1040 -c 1 -i 55 -a 1 -x {0.0 4.0 35 ------- null}
+ -t 0.29632 -s 0 -d 5 -p tcp -e 1040 -c 1 -i 56 -a 1 -x {0.0 4.0 36 ------- null}
- -t 0.29728 -s 0 -d 5 -p tcp -e 1040 -c 1 -i 38 -a 1 -x {0.0 4.0 24 ------- null}
h -t 0.29728 -s 0 -d 5 -p tcp -e 1040 -c 1 -i 38 -a 1 -x {0.0 4.0 -1 ------- null}
r -t 0.29896 -s 0 -d 5 -p tcp -e 1040 -c 1 -i 35 -a 1 -x {0.0 4.0 22 ------- null}
+ -t 0.29896 -s 5 -d 4 -p tcp -e 1040 -c 1 -i 35 -a 1 -x {0.0 4.0 22 ------- null}
- -t 0.29896 -s 5 -d 4 -p tcp -e 1040 -c 1 -i 35 -a 1 -x {0.0 4.0 22 ------- null}
h -t 0.29896 -s 5 -d 4 -p tcp -e 1040 -c 1 -i 35 -a 1 -x {0.0 4.0 -1 ------- null}
r -t 0.30064 -s 5 -d 4 -p tcp -e 1040 -c 1 -i 32 -a 1 -x {0.0 4.0 20 ------- null}
+ -t 0.30064 -s 4 -d 5 -p ack -e 40 -c 1 -i 57 -a 1 -x {4.0 0.0 20 ------- null}
- -t 0.30064 -s 4 -d 5 -p ack -e 40 -c 1 -i 57 -a 1 -x {4.0 0.0 20 ------- null}
h -t 0.30064 -s 4 -d 5 -p ack -e 40 -c 1 -i 57 -a 1 -x {4.0 0.0 -1 ------- null}
r -t 0.30264 -s 4 -d 5 -p ack -e 40 -c 1 -i 54 -a 1 -x {4.0 0.0 19 ------- null}
+ -t 0.30264 -s 5 -d 0 -p ack -e 40 -c 1 -i 54 -a 1 -x {4.0 0.0 19 ------- null}
- -t 0.30264 -s 5 -d 0 -p ack -e 40 -c 1 -i 54 -a 1 -x {4.0 0.0 19 ------- null}