+ 0 0 5 tcp 40 ------- 1 0.0 5.0 0 0
- 0 0 5 tcp 40 ------- 1 0.0 5.0 0 0
r 0.01032 0 5 tcp 40 ------- 1 0.0 5.0 0 0
+ 0.01032 5 0 ack 40 ------- 1 5.0 0.0 0 1
- 0.01032 5 0 ack 40 ------- 1 5.0 0.0 0 1
r 0.02064 5 0 ack 40 ------- 1 5.0 0.0 0 1
+ 0.02064 0 5 tcp 1040 ------- 1 0.0 5.0 1 2
- 0.02064 0 5 tcp 1040 ------- 1 0.0 5.0 1 2
+ 0.02064 0 5 tcp 1040 ------- 1 0.0 5.0 2 3
- 0.02896 0 5 tcp 1040 ------- 1 0.0 5.0 2 3
r 0.03896 0 5 tcp 1040 ------- 1 0.0 5.0 1 2
+ 0.03896 5 0 ack 40 ------- 1 5.0 0.0 1 4
- 0.03896 5 0 ack 40 ------- 1 5.0 0.0 1 4
r 0.04728 0 5 tcp 1040 ------- 1 0.0 5.0 2 3
+ 0.04728 5 0 ack 40 ------- 1 5.0 0.0 2 5
- 0.04728 5 0 ack 40 ------- 1 5.0 0.0 2 5
r 0.04928 5 0 ack 40 ------- 1 5.0 0.0 1 4
+ 0.04928 0 5 tcp 1040 ------- 1 0.0 5.0 3 6
- 0.04928 0 5 tcp 1040 ------- 1 0.0 5.0 3 6
+ 0.04928 0 5 tcp 1040 ------- 1 0.0 5.0 4 7
r 0.0576 5 0 ack 40 ------- 1 5.0 0.0 2 5
+ 0.0576 0 5 tcp 1040 ------- 1 0.0 5.0 5 8
+ 0.0576 0 5 tcp 1040 ------- 1 0.0 5.0 6 9
- 0.0576 0 5 tcp 1040 ------- 1 0.0 5.0 4 7
- 0.06592 0 5 tcp 1040 ------- 1 0.0 5.0 5 8
r 0.0676 0 5 tcp 1040 ------- 1 0.0 5.0 3 6
+ 0.0676 5 0 ack 40 ------- 1 5.0 0.0 3 10
- 0.0676 5 0 ack 40 ------- 1 5.0 0.0 3 10
- 0.07424 0 5 tcp 1040 ------- 1 0.0 5.0 6 9
r 0.07592 0 5 tcp 1040 ------- 1 0.0 5.0 4 7
+ 0.07592 5 0 ack 40 ------- 1 5.0 0.0 4 11
- 0.07592 5 0 ack 40 ------- 1 5.0 0.0 4 11
r 0.07792 5 0 ack 40 ------- 1 5.0 0.0 3 10
+ 0.07792 0 5 tcp 1040 ------- 1 0.0 5.0 7 12
+ 0.07792 0 5 tcp 1040 ------- 1 0.0 5.0 8 13
- 0.08256 0 5 tcp 1040 ------- 1 0.0 5.0 7 12
r 0.08424 0 5 tcp 1040 ------- 1 0.0 5.0 5 8
+ 0.08424 5 0 ack 40 ------- 1 5.0 0.0 5 14
- 0.08424 5 0 ack 40 ------- 1 5.0 0.0 5 14
r 0.08624 5 0 ack 40 ------- 1 5.0 0.0 4 11
+ 0.08624 0 5 tcp 1040 ------- 1 0.0 5.0 9 15
+ 0.08624 0 5 tcp 1040 ------- 1 0.0 5.0 10 16
- 0.09088 0 5 tcp 1040 ------- 1 0.0 5.0 8 13
r 0.09256 0 5 tcp 1040 ------- 1 0.0 5.0 6 9
+ 0.09256 5 0 ack 40 ------- 1 5.0 0.0 6 17
- 0.09256 5 0 ack 40 ------- 1 5.0 0.0 6 17
r 0.09456 5 0 ack 40 ------- 1 5.0 0.0 5 14
+ 0.09456 0 5 tcp 1040 ------- 1 0.0 5.0 11 18
+ 0.09456 0 5 tcp 1040 ------- 1 0.0 5.0 12 19
- 0.0992 0 5 tcp 1040 ------- 1 0.0 5.0 9 15
r 0.10088 0 5 tcp 1040 ------- 1 0.0 5.0 7 12
+ 0.10088 5 0 ack 40 ------- 1 5.0 0.0 7 20
- 0.10088 5 0 ack 40 ------- 1 5.0 0.0 7 20
r 0.10288 5 0 ack 40 ------- 1 5.0 0.0 6 17
+ 0.10288 0 5 tcp 1040 ------- 1 0.0 5.0 13 21
+ 0.10288 0 5 tcp 1040 ------- 1 0.0 5.0 14 22
- 0.10752 0 5 tcp 1040 ------- 1 0.0 5.0 10 16
r 0.1092 0 5 tcp 1040 ------- 1 0.0 5.0 8 13
+ 0.1092 5 0 ack 40 ------- 1 5.0 0.0 8 23
- 0.1092 5 0 ack 40 ------- 1 5.0 0.0 8 23
r 0.1112 5 0 ack 40 ------- 1 5.0 0.0 7 20
+ 0.1112 0 5 tcp 1040 ------- 1 0.0 5.0 15 24
+ 0.1112 0 5 tcp 1040 ------- 1 0.0 5.0 16 25
- 0.11584 0 5 tcp 1040 ------- 1 0.0 5.0 11 18
r 0.11752 0 5 tcp 1040 ------- 1 0.0 5.0 9 15
+ 0.11752 5 0 ack 40 ------- 1 5.0 0.0 9 26
- 0.11752 5 0 ack 40 ------- 1 5.0 0.0 9 26
r 0.11952 5 0 ack 40 ------- 1 5.0 0.0 8 23
+ 0.11952 0 5 tcp 1040 ------- 1 0.0 5.0 17 27
+ 0.11952 0 5 tcp 1040 ------- 1 0.0 5.0 18 28
- 0.12416 0 5 tcp 1040 ------- 1 0.0 5.0 12 19
r 0.12584 0 5 tcp 1040 ------- 1 0.0 5.0 10 16
+ 0.12584 5 0 ack 40 ------- 1 5.0 0.0 10 29
- 0.12584 5 0 ack 40 ------- 1 5.0 0.0 10 29
r 0.12784 5 0 ack 40 ------- 1 5.0 0.0 9 26
+ 0.12784 0 5 tcp 1040 ------- 1 0.0 5.0 19 30
+ 0.12784 0 5 tcp 1040 ------- 1 0.0 5.0 20 31
- 0.13248 0 5 tcp 1040 ------- 1 0.0 5.0 13 21
r 0.13416 0 5 tcp 1040 ------- 1 0.0 5.0 11 18
+ 0.13416 5 0 ack 40 ------- 1 5.0 0.0 11 32
- 0.13416 5 0 ack 40 ------- 1 5.0 0.0 11 32
r 0.13616 5 0 ack 40 ------- 1 5.0 0.0 10 29
+ 0.13616 0 5 tcp 1040 ------- 1 0.0 5.0 21 33
+ 0.13616 0 5 tcp 1040 ------- 1 0.0 5.0 22 34
- 0.1408 0 5 tcp 1040 ------- 1 0.0 5.0 14 22
r 0.14248 0 5 tcp 1040 ------- 1 0.0 5.0 12 19
+ 0.14248 5 0 ack 40 ------- 1 5.0 0.0 12 35
- 0.14248 5 0 ack 40 ------- 1 5.0 0.0 12 35
r 0.14448 5 0 ack 40 ------- 1 5.0 0.0 11 32
+ 0.14448 0 5 tcp 1040 ------- 1 0.0 5.0 23 36
+ 0.14448 0 5 tcp 1040 ------- 1 0.0 5.0 24 37
- 0.14912 0 5 tcp 1040 ------- 1 0.0 5.0 15 24
r 0.1508 0 5 tcp 1040 ------- 1 0.0 5.0 13 21
+ 0.1508 5 0 ack 40 ------- 1 5.0 0.0 13 38
- 0.1508 5 0 ack 40 ------- 1 5.0 0.0 13 38
r 0.1528 5 0 ack 40 ------- 1 5.0 0.0 12 35
+ 0.1528 0 5 tcp 1040 ------- 1 0.0 5.0 25 39
+ 0.1528 0 5 tcp 1040 ------- 1 0.0 5.0 26 40
- 0.15744 0 5 tcp 1040 ------- 1 0.0 5.0 16 25
r 0.15912 0 5 tcp 1040 ------- 1 0.0 5.0 14 22
+ 0.15912 5 0 ack 40 ------- 1 5.0 0.0 14 41
- 0.15912 5 0 ack 40 ------- 1 5.0 0.0 14 41
r 0.16112 5 0 ack 40 ------- 1 5.0 0.0 13 38
+ 0.16112 0 5 tcp 1040 ------- 1 0.0 5.0 27 42
+ 0.16112 0 5 tcp 1040 ------- 1 0.0 5.0 28 43
- 0.16576 0 5 tcp 1040 ------- 1 0.0 5.0 17 27
r 0.16744 0 5 tcp 1040 ------- 1 0.0 5.0 15 24
+ 0.16744 5 0 ack 40 ------- 1 5.0 0.0 15 44
- 0.16744 5 0 ack 40 ------- 1 5.0 0.0 15 44
r 0.16944 5 0 ack 40 ------- 1 5.0 0.0 14 41
+ 0.16944 0 5 tcp 1040 ------- 1 0.0 5.0 29 45
+ 0.16944 0 5 tcp 1040 ------- 1 0.0 5.0 30 46
- 0.17408 0 5 tcp 1040 ------- 1 0.0 5.0 18 28
r 0.17576 0 5 tcp 1040 ------- 1 0.0 5.0 16 25
+ 0.17576 5 0 ack 40 ------- 1 5.0 0.0 16 47
- 0.17576 5 0 ack 40 ------- 1 5.0 0.0 16 47
r 0.17776 5 0 ack 40 ------- 1 5.0 0.0 15 44
+ 0.17776 0 5 tcp 1040 ------- 1 0.0 5.0 31 48
+ 0.17776 0 5 tcp 1040 ------- 1 0.0 5.0 32 49
- 0.1824 0 5 tcp 1040 ------- 1 0.0 5.0 19 30
r 0.18408 0 5 tcp 1040 ------- 1 0.0 5.0 17 27
+ 0.18408 5 0 ack 40 ------- 1 5.0 0.0 17 50
- 0.18408 5 0 ack 40 ------- 1 5.0 0.0 17 50
r 0.18608 5 0 ack 40 ------- 1 5.0 0.0 16 47
+ 0.18608 0 5 tcp 1040 ------- 1 0.0 5.0 33 51
+ 0.18608 0 5 tcp 1040 ------- 1 0.0 5.0 34 52
- 0.19072 0 5 tcp 1040 ------- 1 0.0 5.0 20 31
r 0.1924 0 5 tcp 1040 ------- 1 0.0 5.0 18 28
+ 0.1924 5 0 ack 40 ------- 1 5.0 0.0 18 53
- 0.1924 5 0 ack 40 ------- 1 5.0 0.0 18 53
r 0.1944 5 0 ack 40 ------- 1 5.0 0.0 17 50
+ 0.1944 0 5 tcp 1040 ------- 1 0.0 5.0 35 54
+ 0.1944 0 5 tcp 1040 ------- 1 0.0 5.0 36 55
- 0.19904 0 5 tcp 1040 ------- 1 0.0 5.0 21 33
r 0.20072 0 5 tcp 1040 ------- 1 0.0 5.0 19 30
+ 0.20072 5 0 ack 40 ------- 1 5.0 0.0 19 56
- 0.20072 5 0 ack 40 ------- 1 5.0 0.0 19 56
r 0.20272 5 0 ack 40 ------- 1 5.0 0.0 18 53
+ 0.20272 0 5 tcp 1040 ------- 1 0.0 5.0 37 57
+ 0.20272 0 5 tcp 1040 ------- 1 0.0 5.0 38 58
- 0.20736 0 5 tcp 1040 ------- 1 0.0 5.0 22 34
r 0.20904 0 5 tcp 1040 ------- 1 0.0 5.0 20 31
+ 0.20904 5 0 ack 40 ------- 1 5.0 0.0 20 59
- 0.20904 5 0 ack 40 ------- 1 5.0 0.0 20 59
r 0.21104 5 0 ack 40 ------- 1 5.0 0.0 19 56
+ 0.21104 0 5 tcp 1040 ------- 1 0.0 5.0 39 60
- 0.21568 0 5 tcp 1040 ------- 1 0.0 5.0 23 36
r 0.21736 0 5 tcp 1040 ------- 1 0.0 5.0 21 33
+ 0.21736 5 0 ack 40 ------- 1 5.0 0.0 21 61
- 0.21736 5 0 ack 40 ------- 1 5.0 0.0 21 61
r 0.21936 5 0 ack 40 ------- 1 5.0 0.0 20 59
+ 0.21936 0 5 tcp 1040 ------- 1 0.0 5.0 40 62
- 0.224 0 5 tcp 1040 ------- 1 0.0 5.0 24 37
r 0.22568 0 5 tcp 1040 ------- 1 0.0 5.0 22 34
+ 0.22568 5 0 ack 40 ------- 1 5.0 0.0 22 63
- 0.22568 5 0 ack 40 ------- 1 5.0 0.0 22 63
r 0.22768 5 0 ack 40 ------- 1 5.0 0.0 21 61
+ 0.22768 0 5 tcp 1040 ------- 1 0.0 5.0 41 64
- 0.23232 0 5 tcp 1040 ------- 1 0.0 5.0 25 39
r 0.234 0 5 tcp 1040 ------- 1 0.0 5.0 23 36
+ 0.234 5 0 ack 40 ------- 1 5.0 0.0 23 65
- 0.234 5 0 ack 40 ------- 1 5.0 0.0 23 65
r 0.236 5 0 ack 40 ------- 1 5.0 0.0 22 63
+ 0.236 0 5 tcp 1040 ------- 1 0.0 5.0 42 66
- 0.24064 0 5 tcp 1040 ------- 1 0.0 5.0 26 40
r 0.24232 0 5 tcp 1040 ------- 1 0.0 5.0 24 37
+ 0.24232 5 0 ack 40 ------- 1 5.0 0.0 24 67
- 0.24232 5 0 ack 40 ------- 1 5.0 0.0 24 67
r 0.24432 5 0 ack 40 ------- 1 5.0 0.0 23 65
+ 0.24432 0 5 tcp 1040 ------- 1 0.0 5.0 43 68
- 0.24896 0 5 tcp 1040 ------- 1 0.0 5.0 27 42
r 0.25064 0 5 tcp 1040 ------- 1 0.0 5.0 25 39
+ 0.25064 5 0 ack 40 ------- 1 5.0 0.0 25 69
- 0.25064 5 0 ack 40 ------- 1 5.0 0.0 25 69
r 0.25264 5 0 ack 40 ------- 1 5.0 0.0 24 67
+ 0.25264 0 5 tcp 1040 ------- 1 0.0 5.0 44 70
- 0.25728 0 5 tcp 1040 ------- 1 0.0 5.0 28 43
r 0.25896 0 5 tcp 1040 ------- 1 0.0 5.0 26 40
+ 0.25896 5 0 ack 40 ------- 1 5.0 0.0 26 71
- 0.25896 5 0 ack 40 ------- 1 5.0 0.0 26 71
r 0.26096 5 0 ack 40 ------- 1 5.0 0.0 25 69
+ 0.26096 0 5 tcp 1040 ------- 1 0.0 5.0 45 72
- 0.2656 0 5 tcp 1040 ------- 1 0.0 5.0 29 45
r 0.26728 0 5 tcp 1040 ------- 1 0.0 5.0 27 42
+ 0.26728 5 0 ack 40 ------- 1 5.0 0.0 27 73
- 0.26728 5 0 ack 40 ------- 1 5.0 0.0 27 73
r 0.26928 5 0 ack 40 ------- 1 5.0 0.0 26 71
+ 0.26928 0 5 tcp 1040 ------- 1 0.0 5.0 46 74
- 0.27392 0 5 tcp 1040 ------- 1 0.0 5.0 30 46
r 0.2756 0 5 tcp 1040 ------- 1 0.0 5.0 28 43
+ 0.2756 5 0 ack 40 ------- 1 5.0 0.0 28 75
- 0.2756 5 0 ack 40 ------- 1 5.0 0.0 28 75
r 0.2776 5 0 ack 40 ------- 1 5.0 0.0 27 73
+ 0.2776 0 5 tcp 1040 ------- 1 0.0 5.0 47 76
- 0.28224 0 5 tcp 1040 ------- 1 0.0 5.0 31 48
r 0.28392 0 5 tcp 1040 ------- 1 0.0 5.0 29 45
+ 0.28392 5 0 ack 40 ------- 1 5.0 0.0 29 77
- 0.28392 5 0 ack 40 ------- 1 5.0 0.0 29 77
r 0.28592 5 0 ack 40 ------- 1 5.0 0.0 28 75
+ 0.28592 0 5 tcp 1040 ------- 1 0.0 5.0 48 78
- 0.29056 0 5 tcp 1040 ------- 1 0.0 5.0 32 49
r 0.29224 0 5 tcp 1040 ------- 1 0.0 5.0 30 46
+ 0.29224 5 0 ack 40 ------- 1 5.0 0.0 30 79
- 0.29224 5 0 ack 40 ------- 1 5.0 0.0 30 79
r 0.29424 5 0 ack 40 ------- 1 5.0 0.0 29 77
+ 0.29424 0 5 tcp 1040 ------- 1 0.0 5.0 49 80
- 0.29888 0 5 tcp 1040 ------- 1 0.0 5.0 33 51
r 0.30056 0 5 tcp 1040 ------- 1 0.0 5.0 31 48
+ 0.30056 5 0 ack 40 ------- 1 5.0 0.0 31 81
- 0.30056 5 0 ack 40 ------- 1 5.0 0.0 31 81
r 0.30256 5 0 ack 40 ------- 1 5.0 0.0 30 79
+ 0.30256 0 5 tcp 1040 ------- 1 0.0 5.0 50 82
- 0.3072 0 5 tcp 1040 ------- 1 0.0 5.0 34 52
r 0.30888 0 5 tcp 1040 ------- 1 0.0 5.0 32 49
+ 0.30888 5 0 ack 40 ------- 1 5.0 0.0 32 83
- 0.30888 5 0 ack 40 ------- 1 5.0 0.0 32 83
r 0.31088 5 0 ack 40 ------- 1 5.0 0.0 31 81
+ 0.31088 0 5 tcp 1040 ------- 1 0.0 5.0 51 84
- 0.31552 0 5 tcp 1040 ------- 1 0.0 5.0 35 54
r 0.3172 0 5 tcp 1040 ------- 1 0.0 5.0 33 51
+ 0.3172 5 0 ack 40 ------- 1 5.0 0.0 33 85
- 0.3172 5 0 ack 40 ------- 1 5.0 0.0 33 85
r 0.3192 5 0 ack 40 ------- 1 5.0 0.0 32 83
+ 0.3192 0 5 tcp 1040 ------- 1 0.0 5.0 52 86
- 0.32384 0 5 tcp 1040 ------- 1 0.0 5.0 36 55
r 0.32552 0 5 tcp 1040 ------- 1 0.0 5.0 34 52
+ 0.32552 5 0 ack 40 ------- 1 5.0 0.0 34 87
- 0.32552 5 0 ack 40 ------- 1 5.0 0.0 34 87
r 0.32752 5 0 ack 40 ------- 1 5.0 0.0 33 85
+ 0.32752 0 5 tcp 1040 ------- 1 0.0 5.0 53 88
- 0.33216 0 5 tcp 1040 ------- 1 0.0 5.0 37 57
r 0.33384 0 5 tcp 1040 ------- 1 0.0 5.0 35 54
+ 0.33384 5 0 ack 40 ------- 1 5.0 0.0 35 89
- 0.33384 5 0 ack 40 ------- 1 5.0 0.0 35 89
r 0.33584 5 0 ack 40 ------- 1 5.0 0.0 34 87
+ 0.33584 0 5 tcp 1040 ------- 1 0.0 5.0 54 90
- 0.34048 0 5 tcp 1040 ------- 1 0.0 5.0 38 58
r 0.34216 0 5 tcp 1040 ------- 1 0.0 5.0 36 55
+ 0.34216 5 0 ack 40 ------- 1 5.0 0.0 36 91
- 0.34216 5 0 ack 40 ------- 1 5.0 0.0 36 91
r 0.34416 5 0 ack 40 ------- 1 5.0 0.0 35 89
+ 0.34416 0 5 tcp 1040 ------- 1 0.0 5.0 55 92
- 0.3488 0 5 tcp 1040 ------- 1 0.0 5.0 39 60
r 0.35048 0 5 tcp 1040 ------- 1 0.0 5.0 37 57
+ 0.35048 5 0 ack 40 ------- 1 5.0 0.0 37 93
- 0.35048 5 0 ack 40 ------- 1 5.0 0.0 37 93
r 0.35248 5 0 ack 40 ------- 1 5.0 0.0 36 91
+ 0.35248 0 5 tcp 1040 ------- 1 0.0 5.0 56 94
- 0.35712 0 5 tcp 1040 ------- 1 0.0 5.0 40 62
r 0.3588 0 5 tcp 1040 ------- 1 0.0 5.0 38 58
+ 0.3588 5 0 ack 40 ------- 1 5.0 0.0 38 95
- 0.3588 5 0 ack 40 ------- 1 5.0 0.0 38 95
r 0.3608 5 0 ack 40 ------- 1 5.0 0.0 37 93
+ 0.3608 0 5 tcp 1040 ------- 1 0.0 5.0 57 96
- 0.36544 0 5 tcp 1040 ------- 1 0.0 5.0 41 64
r 0.36712 0 5 tcp 1040 ------- 1 0.0 5.0 39 60
+ 0.36712 5 0 ack 40 ------- 1 5.0 0.0 39 97
- 0.36712 5 0 ack 40 ------- 1 5.0 0.0 39 97
r 0.36912 5 0 ack 40 ------- 1 5.0 0.0 38 95
+ 0.36912 0 5 tcp 1040 ------- 1 0.0 5.0 58 98
- 0.37376 0 5 tcp 1040 ------- 1 0.0 5.0 42 66
r 0.37544 0 5 tcp 1040 ------- 1 0.0 5.0 40 62
+ 0.37544 5 0 ack 40 ------- 1 5.0 0.0 40 99
- 0.37544 5 0 ack 40 ------- 1 5.0 0.0 40 99
r 0.37744 5 0 ack 40 ------- 1 5.0 0.0 39 97
+ 0.37744 0 5 tcp 1040 ------- 1 0.0 5.0 59 100
- 0.38208 0 5 tcp 1040 ------- 1 0.0 5.0 43 68
r 0.38376 0 5 tcp 1040 ------- 1 0.0 5.0 41 64
+ 0.38376 5 0 ack 40 ------- 1 5.0 0.0 41 101
- 0.38376 5 0 ack 40 ------- 1 5.0 0.0 41 101
r 0.38576 5 0 ack 40 ------- 1 5.0 0.0 40 99
+ 0.38576 0 5 tcp 1040 ------- 1 0.0 5.0 60 102
- 0.3904 0 5 tcp 1040 ------- 1 0.0 5.0 44 70
r 0.39208 0 5 tcp 1040 ------- 1 0.0 5.0 42 66
+ 0.39208 5 0 ack 40 ------- 1 5.0 0.0 42 103
- 0.39208 5 0 ack 40 ------- 1 5.0 0.0 42 103
r 0.39408 5 0 ack 40 ------- 1 5.0 0.0 41 101
+ 0.39408 0 5 tcp 1040 ------- 1 0.0 5.0 61 104
- 0.39872 0 5 tcp 1040 ------- 1 0.0 5.0 45 72
r 0.4004 0 5 tcp 1040 ------- 1 0.0 5.0 43 68
+ 0.4004 5 0 ack 40 ------- 1 5.0 0.0 43 105
- 0.4004 5 0 ack 40 ------- 1 5.0 0.0 43 105
r 0.4024 5 0 ack 40 ------- 1 5.0 0.0 42 103
+ 0.4024 0 5 tcp 1040 ------- 1 0.0 5.0 62 106
- 0.40704 0 5 tcp 1040 ------- 1 0.0 5.0 46 74
r 0.40872 0 5 tcp 1040 ------- 1 0.0 5.0 44 70
+ 0.40872 5 0 ack 40 ------- 1 5.0 0.0 44 107
- 0.40872 5 0 ack 40 ------- 1 5.0 0.0 44 107
r 0.41072 5 0 ack 40 ------- 1 5.0 0.0 43 105
+ 0.41072 0 5 tcp 1040 ------- 1 0.0 5.0 63 108
- 0.41536 0 5 tcp 1040 ------- 1 0.0 5.0 47 76
r 0.41704 0 5 tcp 1040 ------- 1 0.0 5.0 45 72
+ 0.41704 5 0 ack 40 ------- 1 5.0 0.0 45 109
- 0.41704 5 0 ack 40 ------- 1 5.0 0.0 45 109
r 0.41904 5 0 ack 40 ------- 1 5.0 0.0 44 107
+ 0.41904 0 5 tcp 1040 ------- 1 0.0 5.0 64 110
- 0.42368 0 5 tcp 1040 ------- 1 0.0 5.0 48 78
r 0.42536 0 5 tcp 1040 ------- 1 0.0 5.0 46 74
+ 0.42536 5 0 ack 40 ------- 1 5.0 0.0 46 111
- 0.42536 5 0 ack 40 ------- 1 5.0 0.0 46 111
r 0.42736 5 0 ack 40 ------- 1 5.0 0.0 45 109
+ 0.42736 0 5 tcp 1040 ------- 1 0.0 5.0 65 112
- 0.432 0 5 tcp 1040 ------- 1 0.0 5.0 49 80
r 0.43368 0 5 tcp 1040 ------- 1 0.0 5.0 47 76
+ 0.43368 5 0 ack 40 ------- 1 5.0 0.0 47 113
- 0.43368 5 0 ack 40 ------- 1 5.0 0.0 47 113
r 0.43568 5 0 ack 40 ------- 1 5.0 0.0 46 111
+ 0.43568 0 5 tcp 1040 ------- 1 0.0 5.0 66 114
- 0.44032 0 5 tcp 1040 ------- 1 0.0 5.0 50 82
r 0.442 0 5 tcp 1040 ------- 1 0.0 5.0 48 78
+ 0.442 5 0 ack 40 ------- 1 5.0 0.0 48 115
- 0.442 5 0 ack 40 ------- 1 5.0 0.0 48 115
r 0.444 5 0 ack 40 ------- 1 5.0 0.0 47 113
+ 0.444 0 5 tcp 1040 ------- 1 0.0 5.0 67 116
- 0.44864 0 5 tcp 1040 ------- 1 0.0 5.0 51 84
r 0.45032 0 5 tcp 1040 ------- 1 0.0 5.0 49 80
+ 0.45032 5 0 ack 40 ------- 1 5.0 0.0 49 117
- 0.45032 5 0 ack 40 ------- 1 5.0 0.0 49 117
r 0.45232 5 0 ack 40 ------- 1 5.0 0.0 48 115
+ 0.45232 0 5 tcp 1040 ------- 1 0.0 5.0 68 118
- 0.45696 0 5 tcp 1040 ------- 1 0.0 5.0 52 86
r 0.45864 0 5 tcp 1040 ------- 1 0.0 5.0 50 82
+ 0.45864 5 0 ack 40 ------- 1 5.0 0.0 50 119
- 0.45864 5 0 ack 40 ------- 1 5.0 0.0 50 119
r 0.46064 5 0 ack 40 ------- 1 5.0 0.0 49 117
+ 0.46064 0 5 tcp 1040 ------- 1 0.0 5.0 69 120
- 0.46528 0 5 tcp 1040 ------- 1 0.0 5.0 53 88
r 0.46696 0 5 tcp 1040 ------- 1 0.0 5.0 51 84
+ 0.46696 5 0 ack 40 ------- 1 5.0 0.0 51 121
- 0.46696 5 0 ack 40 ------- 1 5.0 0.0 51 121
r 0.46896 5 0 ack 40 ------- 1 5.0 0.0 50 119
+ 0.46896 0 5 tcp 1040 ------- 1 0.0 5.0 70 122
- 0.4736 0 5 tcp 1040 ------- 1 0.0 5.0 54 90
r 0.47528 0 5 tcp 1040 ------- 1 0.0 5.0 52 86
+ 0.47528 5 0 ack 40 ------- 1 5.0 0.0 52 123
- 0.47528 5 0 ack 40 ------- 1 5.0 0.0 52 123
r 0.47728 5 0 ack 40 ------- 1 5.0 0.0 51 121
+ 0.47728 0 5 tcp 1040 ------- 1 0.0 5.0 71 124
- 0.48192 0 5 tcp 1040 ------- 1 0.0 5.0 55 92
r 0.4836 0 5 tcp 1040 ------- 1 0.0 5.0 53 88
+ 0.4836 5 0 ack 40 ------- 1 5.0 0.0 53 125
- 0.4836 5 0 ack 40 ------- 1 5.0 0.0 53 125
r 0.4856 5 0 ack 40 ------- 1 5.0 0.0 52 123
+ 0.4856 0 5 tcp 1040 ------- 1 0.0 5.0 72 126
- 0.49024 0 5 tcp 1040 ------- 1 0.0 5.0 56 94
r 0.49192 0 5 tcp 1040 ------- 1 0.0 5.0 54 90
+ 0.49192 5 0 ack 40 ------- 1 5.0 0.0 54 127
- 0.49192 5 0 ack 40 ------- 1 5.0 0.0 54 127
r 0.49392 5 0 ack 40 ------- 1 5.0 0.0 53 125
+ 0.49392 0 5 tcp 1040 ------- 1 0.0 5.0 73 128
- 0.49856 0 5 tcp 1040 ------- 1 0.0 5.0 57 96
r 0.50024 0 5 tcp 1040 ------- 1 0.0 5.0 55 92
+ 0.50024 5 0 ack 40 ------- 1 5.0 0.0 55 129
- 0.50024 5 0 ack 40 ------- 1 5.0 0.0 55 129
r 0.50224 5 0 ack 40 ------- 1 5.0 0.0 54 127
+ 0.50224 0 5 tcp 1040 ------- 1 0.0 5.0 74 130
- 0.50688 0 5 tcp 1040 ------- 1 0.0 5.0 58 98
r 0.50856 0 5 tcp 1040 ------- 1 0.0 5.0 56 94
+ 0.50856 5 0 ack 40 ------- 1 5.0 0.0 56 131
- 0.50856 5 0 ack 40 ------- 1 5.0 0.0 56 131
r 0.51056 5 0 ack 40 ------- 1 5.0 0.0 55 129
+ 0.51056 0 5 tcp 1040 ------- 1 0.0 5.0 75 132
- 0.5152 0 5 tcp 1040 ------- 1 0.0 5.0 59 100
r 0.51688 0 5 tcp 1040 ------- 1 0.0 5.0 57 96
+ 0.51688 5 0 ack 40 ------- 1 5.0 0.0 57 133
- 0.51688 5 0 ack 40 ------- 1 5.0 0.0 57 133
r 0.51888 5 0 ack 40 ------- 1 5.0 0.0 56 131
+ 0.51888 0 5 tcp 1040 ------- 1 0.0 5.0 76 134
- 0.52352 0 5 tcp 1040 ------- 1 0.0 5.0 60 102
r 0.5252 0 5 tcp 1040 ------- 1 0.0 5.0 58 98
+ 0.5252 5 0 ack 40 ------- 1 5.0 0.0 58 135
- 0.5252 5 0 ack 40 ------- 1 5.0 0.0 58 135
r 0.5272 5 0 ack 40 ------- 1 5.0 0.0 57 133
+ 0.5272 0 5 tcp 1040 ------- 1 0.0 5.0 77 136
- 0.53184 0 5 tcp 1040 ------- 1 0.0 5.0 61 104
r 0.53352 0 5 tcp 1040 ------- 1 0.0 5.0 59 100
+ 0.53352 5 0 ack 40 ------- 1 5.0 0.0 59 137
- 0.53352 5 0 ack 40 ------- 1 5.0 0.0 59 137
r 0.53552 5 0 ack 40 ------- 1 5.0 0.0 58 135
+ 0.53552 0 5 tcp 1040 ------- 1 0.0 5.0 78 138
- 0.54016 0 5 tcp 1040 ------- 1 0.0 5.0 62 106
r 0.54184 0 5 tcp 1040 ------- 1 0.0 5.0 60 102
+ 0.54184 5 0 ack 40 ------- 1 5.0 0.0 60 139
- 0.54184 5 0 ack 40 ------- 1 5.0 0.0 60 139
r 0.54384 5 0 ack 40 ------- 1 5.0 0.0 59 137
+ 0.54384 0 5 tcp 1040 ------- 1 0.0 5.0 79 140
- 0.54848 0 5 tcp 1040 ------- 1 0.0 5.0 63 108
r 0.55016 0 5 tcp 1040 ------- 1 0.0 5.0 61 104
+ 0.55016 5 0 ack 40 ------- 1 5.0 0.0 61 141
- 0.55016 5 0 ack 40 ------- 1 5.0 0.0 61 141
r 0.55216 5 0 ack 40 ------- 1 5.0 0.0 60 139
+ 0.55216 0 5 tcp 1040 ------- 1 0.0 5.0 80 142
- 0.5568 0 5 tcp 1040 ------- 1 0.0 5.0 64 110
r 0.55848 0 5 tcp 1040 ------- 1 0.0 5.0 62 106
+ 0.55848 5 0 ack 40 ------- 1 5.0 0.0 62 143
- 0.55848 5 0 ack 40 ------- 1 5.0 0.0 62 143
r 0.56048 5 0 ack 40 ------- 1 5.0 0.0 61 141
+ 0.56048 0 5 tcp 1040 ------- 1 0.0 5.0 81 144
- 0.56512 0 5 tcp 1040 ------- 1 0.0 5.0 65 112
r 0.5668 0 5 tcp 1040 ------- 1 0.0 5.0 63 108
+ 0.5668 5 0 ack 40 ------- 1 5.0 0.0 63 145
- 0.5668 5 0 ack 40 ------- 1 5.0 0.0 63 145
r 0.5688 5 0 ack 40 ------- 1 5.0 0.0 62 143
+ 0.5688 0 5 tcp 1040 ------- 1 0.0 5.0 82 146
- 0.57344 0 5 tcp 1040 ------- 1 0.0 5.0 66 114
r 0.57512 0 5 tcp 1040 ------- 1 0.0 5.0 64 110
+ 0.57512 5 0 ack 40 ------- 1 5.0 0.0 64 147
- 0.57512 5 0 ack 40 ------- 1 5.0 0.0 64 147
r 0.57712 5 0 ack 40 ------- 1 5.0 0.0 63 145
+ 0.57712 0 5 tcp 1040 ------- 1 0.0 5.0 83 148
- 0.58176 0 5 tcp 1040 ------- 1 0.0 5.0 67 116
r 0.58344 0 5 tcp 1040 ------- 1 0.0 5.0 65 112
+ 0.58344 5 0 ack 40 ------- 1 5.0 0.0 65 149
- 0.58344 5 0 ack 40 ------- 1 5.0 0.0 65 149
r 0.58544 5 0 ack 40 ------- 1 5.0 0.0 64 147
+ 0.58544 0 5 tcp 1040 ------- 1 0.0 5.0 84 150
- 0.59008 0 5 tcp 1040 ------- 1 0.0 5.0 68 118
r 0.59176 0 5 tcp 1040 ------- 1 0.0 5.0 66 114
+ 0.59176 5 0 ack 40 ------- 1 5.0 0.0 66 151
- 0.59176 5 0 ack 40 ------- 1 5.0 0.0 66 151
r 0.59376 5 0 ack 40 ------- 1 5.0 0.0 65 149
+ 0.59376 0 5 tcp 1040 ------- 1 0.0 5.0 85 152
- 0.5984 0 5 tcp 1040 ------- 1 0.0 5.0 69 120
r 0.60008 0 5 tcp 1040 ------- 1 0.0 5.0 67 116
+ 0.60008 5 0 ack 40 ------- 1 5.0 0.0 67 153
- 0.60008 5 0 ack 40 ------- 1 5.0 0.0 67 153
r 0.60208 5 0 ack 40 ------- 1 5.0 0.0 66 151
+ 0.60208 0 5 tcp 1040 ------- 1 0.0 5.0 86 154
- 0.60672 0 5 tcp 1040 ------- 1 0.0 5.0 70 122
r 0.6084 0 5 tcp 1040 ------- 1 0.0 5.0 68 118
+ 0.6084 5 0 ack 40 ------- 1 5.0 0.0 68 155
- 0.6084 5 0 ack 40 ------- 1 5.0 0.0 68 155
r 0.6104 5 0 ack 40 ------- 1 5.0 0.0 67 153
+ 0.6104 0 5 tcp 1040 ------- 1 0.0 5.0 87 156
- 0.61504 0 5 tcp 1040 ------- 1 0.0 5.0 71 124
r 0.61672 0 5 tcp 1040 ------- 1 0.0 5.0 69 120
+ 0.61672 5 0 ack 40 ------- 1 5.0 0.0 69 157
- 0.61672 5 0 ack 40 ------- 1 5.0 0.0 69 157
r 0.61872 5 0 ack 40 ------- 1 5.0 0.0 68 155
+ 0.61872 0 5 tcp 1040 ------- 1 0.0 5.0 88 158
- 0.62336 0 5 tcp 1040 ------- 1 0.0 5.0 72 126
r 0.62504 0 5 tcp 1040 ------- 1 0.0 5.0 70 122
+ 0.62504 5 0 ack 40 ------- 1 5.0 0.0 70 159
- 0.62504 5 0 ack 40 ------- 1 5.0 0.0 70 159
r 0.62704 5 0 ack 40 ------- 1 5.0 0.0 69 157
+ 0.62704 0 5 tcp 1040 ------- 1 0.0 5.0 89 160
- 0.63168 0 5 tcp 1040 ------- 1 0.0 5.0 73 128
r 0.63336 0 5 tcp 1040 ------- 1 0.0 5.0 71 124
+ 0.63336 5 0 ack 40 ------- 1 5.0 0.0 71 161
- 0.63336 5 0 ack 40 ------- 1 5.0 0.0 71 161
r 0.63536 5 0 ack 40 ------- 1 5.0 0.0 70 159
+ 0.63536 0 5 tcp 1040 ------- 1 0.0 5.0 90 162
- 0.64 0 5 tcp 1040 ------- 1 0.0 5.0 74 130
r 0.64168 0 5 tcp 1040 ------- 1 0.0 5.0 72 126
+ 0.64168 5 0 ack 40 ------- 1 5.0 0.0 72 163
- 0.64168 5 0 ack 40 ------- 1 5.0 0.0 72 163
r 0.64368 5 0 ack 40 ------- 1 5.0 0.0 71 161
+ 0.64368 0 5 tcp 1040 ------- 1 0.0 5.0 91 164
- 0.64832 0 5 tcp 1040 ------- 1 0.0 5.0 75 132
r 0.65 0 5 tcp 1040 ------- 1 0.0 5.0 73 128
+ 0.65 5 0 ack 40 ------- 1 5.0 0.0 73 165
- 0.65 5 0 ack 40 ------- 1 5.0 0.0 73 165
r 0.652 5 0 ack 40 ------- 1 5.0 0.0 72 163
+ 0.652 0 5 tcp 1040 ------- 1 0.0 5.0 92 166
- 0.65664 0 5 tcp 1040 ------- 1 0.0 5.0 76 134
r 0.65832 0 5 tcp 1040 ------- 1 0.0 5.0 74 130
+ 0.65832 5 0 ack 40 ------- 1 5.0 0.0 74 167
- 0.65832 5 0 ack 40 ------- 1 5.0 0.0 74 167
r 0.66032 5 0 ack 40 ------- 1 5.0 0.0 73 165
+ 0.66032 0 5 tcp 1040 ------- 1 0.0 5.0 93 168
- 0.66496 0 5 tcp 1040 ------- 1 0.0 5.0 77 136
r 0.66664 0 5 tcp 1040 ------- 1 0.0 5.0 75 132
+ 0.66664 5 0 ack 40 ------- 1 5.0 0.0 75 169
- 0.66664 5 0 ack 40 ------- 1 5.0 0.0 75 169
r 0.66864 5 0 ack 40 ------- 1 5.0 0.0 74 167
+ 0.66864 0 5 tcp 1040 ------- 1 0.0 5.0 94 170
- 0.67328 0 5 tcp 1040 ------- 1 0.0 5.0 78 138
r 0.67496 0 5 tcp 1040 ------- 1 0.0 5.0 76 134
+ 0.67496 5 0 ack 40 ------- 1 5.0 0.0 76 171
- 0.67496 5 0 ack 40 ------- 1 5.0 0.0 76 171
r 0.67696 5 0 ack 40 ------- 1 5.0 0.0 75 169
+ 0.67696 0 5 tcp 1040 ------- 1 0.0 5.0 95 172
- 0.6816 0 5 tcp 1040 ------- 1 0.0 5.0 79 140
r 0.68328 0 5 tcp 1040 ------- 1 0.0 5.0 77 136
+ 0.68328 5 0 ack 40 ------- 1 5.0 0.0 77 173
- 0.68328 5 0 ack 40 ------- 1 5.0 0.0 77 173
r 0.68528 5 0 ack 40 ------- 1 5.0 0.0 76 171
+ 0.68528 0 5 tcp 1040 ------- 1 0.0 5.0 96 174
- 0.68992 0 5 tcp 1040 ------- 1 0.0 5.0 80 142
r 0.6916 0 5 tcp 1040 ------- 1 0.0 5.0 78 138
+ 0.6916 5 0 ack 40 ------- 1 5.0 0.0 78 175
- 0.6916 5 0 ack 40 ------- 1 5.0 0.0 78 175
r 0.6936 5 0 ack 40 ------- 1 5.0 0.0 77 173
+ 0.6936 0 5 tcp 1040 ------- 1 0.0 5.0 97 176
- 0.69824 0 5 tcp 1040 ------- 1 0.0 5.0 81 144
r 0.69992 0 5 tcp 1040 ------- 1 0.0 5.0 79 140
+ 0.69992 5 0 ack 40 ------- 1 5.0 0.0 79 177
- 0.69992 5 0 ack 40 ------- 1 5.0 0.0 79 177
r 0.70192 5 0 ack 40 ------- 1 5.0 0.0 78 175
+ 0.70192 0 5 tcp 1040 ------- 1 0.0 5.0 98 178
- 0.70656 0 5 tcp 1040 ------- 1 0.0 5.0 82 146
r 0.70824 0 5 tcp 1040 ------- 1 0.0 5.0 80 142
+ 0.70824 5 0 ack 40 ------- 1 5.0 0.0 80 179
- 0.70824 5 0 ack 40 ------- 1 5.0 0.0 80 179
r 0.71024 5 0 ack 40 ------- 1 5.0 0.0 79 177
+ 0.71024 0 5 tcp 1040 ------- 1 0.0 5.0 99 180
- 0.71488 0 5 tcp 1040 ------- 1 0.0 5.0 83 148
r 0.71656 0 5 tcp 1040 ------- 1 0.0 5.0 81 144
+ 0.71656 5 0 ack 40 ------- 1 5.0 0.0 81 181
- 0.71656 5 0 ack 40 ------- 1 5.0 0.0 81 181
r 0.71856 5 0 ack 40 ------- 1 5.0 0.0 80 179
+ 0.71856 0 5 tcp 1040 ------- 1 0.0 5.0 100 182
- 0.7232 0 5 tcp 1040 ------- 1 0.0 5.0 84 150
r 0.72488 0 5 tcp 1040 ------- 1 0.0 5.0 82 146
+ 0.72488 5 0 ack 40 ------- 1 5.0 0.0 82 183
- 0.72488 5 0 ack 40 ------- 1 5.0 0.0 82 183
r 0.72688 5 0 ack 40 ------- 1 5.0 0.0 81 181
+ 0.72688 0 5 tcp 1040 ------- 1 0.0 5.0 101 184
- 0.73152 0 5 tcp 1040 ------- 1 0.0 5.0 85 152
r 0.7332 0 5 tcp 1040 ------- 1 0.0 5.0 83 148
+ 0.7332 5 0 ack 40 ------- 1 5.0 0.0 83 185
- 0.7332 5 0 ack 40 ------- 1 5.0 0.0 83 185
r 0.7352 5 0 ack 40 ------- 1 5.0 0.0 82 183
+ 0.7352 0 5 tcp 1040 ------- 1 0.0 5.0 102 186
- 0.73984 0 5 tcp 1040 ------- 1 0.0 5.0 86 154
r 0.74152 0 5 tcp 1040 ------- 1 0.0 5.0 84 150
+ 0.74152 5 0 ack 40 ------- 1 5.0 0.0 84 187
- 0.74152 5 0 ack 40 ------- 1 5.0 0.0 84 187
r 0.74352 5 0 ack 40 ------- 1 5.0 0.0 83 185
+ 0.74352 0 5 tcp 1040 ------- 1 0.0 5.0 103 188
- 0.74816 0 5 tcp 1040 ------- 1 0.0 5.0 87 156
r 0.74984 0 5 tcp 1040 ------- 1 0.0 5.0 85 152
+ 0.74984 5 0 ack 40 ------- 1 5.0 0.0 85 189
- 0.74984 5 0 ack 40 ------- 1 5.0 0.0 85 189
r 0.75184 5 0 ack 40 ------- 1 5.0 0.0 84 187
+ 0.75184 0 5 tcp 1040 ------- 1 0.0 5.0 104 190
- 0.75648 0 5 tcp 1040 ------- 1 0.0 5.0 88 158
r 0.75816 0 5 tcp 1040 ------- 1 0.0 5.0 86 154
+ 0.75816 5 0 ack 40 ------- 1 5.0 0.0 86 191
- 0.75816 5 0 ack 40 ------- 1 5.0 0.0 86 191
r 0.76016 5 0 ack 40 ------- 1 5.0 0.0 85 189
+ 0.76016 0 5 tcp 1040 ------- 1 0.0 5.0 105 192
- 0.7648 0 5 tcp 1040 ------- 1 0.0 5.0 89 160
r 0.76648 0 5 tcp 1040 ------- 1 0.0 5.0 87 156
+ 0.76648 5 0 ack 40 ------- 1 5.0 0.0 87 193
- 0.76648 5 0 ack 40 ------- 1 5.0 0.0 87 193
r 0.76848 5 0 ack 40 ------- 1 5.0 0.0 86 191
+ 0.76848 0 5 tcp 1040 ------- 1 0.0 5.0 106 194
- 0.77312 0 5 tcp 1040 ------- 1 0.0 5.0 90 162
r 0.7748 0 5 tcp 1040 ------- 1 0.0 5.0 88 158
+ 0.7748 5 0 ack 40 ------- 1 5.0 0.0 88 195
- 0.7748 5 0 ack 40 ------- 1 5.0 0.0 88 195
r 0.7768 5 0 ack 40 ------- 1 5.0 0.0 87 193
+ 0.7768 0 5 tcp 1040 ------- 1 0.0 5.0 107 196
- 0.78144 0 5 tcp 1040 ------- 1 0.0 5.0 91 164
r 0.78312 0 5 tcp 1040 ------- 1 0.0 5.0 89 160
+ 0.78312 5 0 ack 40 ------- 1 5.0 0.0 89 197
- 0.78312 5 0 ack 40 ------- 1 5.0 0.0 89 197
r 0.78512 5 0 ack 40 ------- 1 5.0 0.0 88 195
+ 0.78512 0 5 tcp 1040 ------- 1 0.0 5.0 108 198
- 0.78976 0 5 tcp 1040 ------- 1 0.0 5.0 92 166
r 0.79144 0 5 tcp 1040 ------- 1 0.0 5.0 90 162
+ 0.79144 5 0 ack 40 ------- 1 5.0 0.0 90 199
- 0.79144 5 0 ack 40 ------- 1 5.0 0.0 90 199
r 0.79344 5 0 ack 40 ------- 1 5.0 0.0 89 197
+ 0.79344 0 5 tcp 1040 ------- 1 0.0 5.0 109 200
- 0.79808 0 5 tcp 1040 ------- 1 0.0 5.0 93 168
r 0.79976 0 5 tcp 1040 ------- 1 0.0 5.0 91 164
+ 0.79976 5 0 ack 40 ------- 1 5.0 0.0 91 201
- 0.79976 5 0 ack 40 ------- 1 5.0 0.0 91 201
r 0.80176 5 0 ack 40 ------- 1 5.0 0.0 90 199
+ 0.80176 0 5 tcp 1040 ------- 1 0.0 5.0 110 202
- 0.8064 0 5 tcp 1040 ------- 1 0.0 5.0 94 170
r 0.80808 0 5 tcp 1040 ------- 1 0.0 5.0 92 166
+ 0.80808 5 0 ack 40 ------- 1 5.0 0.0 92 203
- 0.80808 5 0 ack 40 ------- 1 5.0 0.0 92 203
r 0.81008 5 0 ack 40 ------- 1 5.0 0.0 91 201
+ 0.81008 0 5 tcp 1040 ------- 1 0.0 5.0 111 204
- 0.81472 0 5 tcp 1040 ------- 1 0.0 5.0 95 172
r 0.8164 0 5 tcp 1040 ------- 1 0.0 5.0 93 168
+ 0.8164 5 0 ack 40 ------- 1 5.0 0.0 93 205
- 0.8164 5 0 ack 40 ------- 1 5.0 0.0 93 205
r 0.8184 5 0 ack 40 ------- 1 5.0 0.0 92 203
+ 0.8184 0 5 tcp 1040 ------- 1 0.0 5.0 112 206
- 0.82304 0 5 tcp 1040 ------- 1 0.0 5.0 96 174
r 0.82472 0 5 tcp 1040 ------- 1 0.0 5.0 94 170
+ 0.82472 5 0 ack 40 ------- 1 5.0 0.0 94 207
- 0.82472 5 0 ack 40 ------- 1 5.0 0.0 94 207
r 0.82672 5 0 ack 40 ------- 1 5.0 0.0 93 205
+ 0.82672 0 5 tcp 1040 ------- 1 0.0 5.0 113 208
- 0.83136 0 5 tcp 1040 ------- 1 0.0 5.0 97 176
r 0.83304 0 5 tcp 1040 ------- 1 0.0 5.0 95 172
+ 0.83304 5 0 ack 40 ------- 1 5.0 0.0 95 209
- 0.83304 5 0 ack 40 ------- 1 5.0 0.0 95 209
r 0.83504 5 0 ack 40 ------- 1 5.0 0.0 94 207
+ 0.83504 0 5 tcp 1040 ------- 1 0.0 5.0 114 210
- 0.83968 0 5 tcp 1040 ------- 1 0.0 5.0 98 178
r 0.84136 0 5 tcp 1040 ------- 1 0.0 5.0 96 174
+ 0.84136 5 0 ack 40 ------- 1 5.0 0.0 96 211
- 0.84136 5 0 ack 40 ------- 1 5.0 0.0 96 211
r 0.84336 5 0 ack 40 ------- 1 5.0 0.0 95 209
+ 0.84336 0 5 tcp 1040 ------- 1 0.0 5.0 115 212
- 0.848 0 5 tcp 1040 ------- 1 0.0 5.0 99 180
r 0.84968 0 5 tcp 1040 ------- 1 0.0 5.0 97 176
+ 0.84968 5 0 ack 40 ------- 1 5.0 0.0 97 213
- 0.84968 5 0 ack 40 ------- 1 5.0 0.0 97 213
r 0.85168 5 0 ack 40 ------- 1 5.0 0.0 96 211
+ 0.85168 0 5 tcp 1040 ------- 1 0.0 5.0 116 214
- 0.85632 0 5 tcp 1040 ------- 1 0.0 5.0 100 182
r 0.858 0 5 tcp 1040 ------- 1 0.0 5.0 98 178
+ 0.858 5 0 ack 40 ------- 1 5.0 0.0 98 215
- 0.858 5 0 ack 40 ------- 1 5.0 0.0 98 215
r 0.86 5 0 ack 40 ------- 1 5.0 0.0 97 213
+ 0.86 0 5 tcp 1040 ------- 1 0.0 5.0 117 216
- 0.86464 0 5 tcp 1040 ------- 1 0.0 5.0 101 184
r 0.86632 0 5 tcp 1040 ------- 1 0.0 5.0 99 180
+ 0.86632 5 0 ack 40 ------- 1 5.0 0.0 99 217
- 0.86632 5 0 ack 40 ------- 1 5.0 0.0 99 217
r 0.86832 5 0 ack 40 ------- 1 5.0 0.0 98 215
+ 0.86832 0 5 tcp 1040 ------- 1 0.0 5.0 118 218
- 0.87296 0 5 tcp 1040 ------- 1 0.0 5.0 102 186
r 0.87464 0 5 tcp 1040 ------- 1 0.0 5.0 100 182
+ 0.87464 5 0 ack 40 ------- 1 5.0 0.0 100 219
- 0.87464 5 0 ack 40 ------- 1 5.0 0.0 100 219
r 0.87664 5 0 ack 40 ------- 1 5.0 0.0 99 217
+ 0.87664 0 5 tcp 1040 ------- 1 0.0 5.0 119 220
- 0.88128 0 5 tcp 1040 ------- 1 0.0 5.0 103 188
r 0.88296 0 5 tcp 1040 ------- 1 0.0 5.0 101 184
+ 0.88296 5 0 ack 40 ------- 1 5.0 0.0 101 221
- 0.88296 5 0 ack 40 ------- 1 5.0 0.0 101 221
r 0.88496 5 0 ack 40 ------- 1 5.0 0.0 100 219
+ 0.88496 0 5 tcp 1040 ------- 1 0.0 5.0 120 222
- 0.8896 0 5 tcp 1040 ------- 1 0.0 5.0 104 190
r 0.89128 0 5 tcp 1040 ------- 1 0.0 5.0 102 186
+ 0.89128 5 0 ack 40 ------- 1 5.0 0.0 102 223
- 0.89128 5 0 ack 40 ------- 1 5.0 0.0 102 223
r 0.89328 5 0 ack 40 ------- 1 5.0 0.0 101 221
+ 0.89328 0 5 tcp 1040 ------- 1 0.0 5.0 121 224
- 0.89792 0 5 tcp 1040 ------- 1 0.0 5.0 105 192
r 0.8996 0 5 tcp 1040 ------- 1 0.0 5.0 103 188
+ 0.8996 5 0 ack 40 ------- 1 5.0 0.0 103 225
- 0.8996 5 0 ack 40 ------- 1 5.0 0.0 103 225
r 0.9016 5 0 ack 40 ------- 1 5.0 0.0 102 223
+ 0.9016 0 5 tcp 1040 ------- 1 0.0 5.0 122 226
- 0.90624 0 5 tcp 1040 ------- 1 0.0 5.0 106 194
r 0.90792 0 5 tcp 1040 ------- 1 0.0 5.0 104 190
+ 0.90792 5 0 ack 40 ------- 1 5.0 0.0 104 227
- 0.90792 5 0 ack 40 ------- 1 5.0 0.0 104 227