V -t * -v 1.0a5 -a 0
A -t * -n 1 -p 0 -o 0x7fffffff -c 30 -a 1
A -t * -h 1 -m 1073741823 -s 0
n -t * -a 4 -s 4 -S UP -v circle -c black -i black
n -t * -a 0 -s 0 -S UP -v circle -c black -i black
n -t * -a 1 -s 1 -S UP -v circle -c black -i black
n -t * -a 2 -s 2 -S UP -v circle -c black -i black
n -t * -a 3 -s 3 -S UP -v circle -c black -i black
X -t * -n 5 -r 0.5Mb -D 40ms -o left
L -t * -s 5 -d 0 -o up
L -t * -s 5 -d 1 -o down
L -t * -s 5 -d 2 -o up
L -t * -s 5 -d 3 -o down
L -t * -s 5 -d 4 -o up
h -t 0 -s 0 -d 5 -p tcp -e 40 -c 1 -i 0 -a 1 -x {0.0 3.0 0 ------- null}
+ -t 0.04 -s 0 -d 5 -p tcp -e 40 -c 1 -i 0 -a 1 -x {0.0 3.0 0 ------- null}
- -t 0.04 -s 0 -d 5 -p tcp -e 40 -c 1 -i 0 -a 1 -x {0.0 3.0 0 ------- null}
h -t 0.04 -s 0 -d 5 -p tcp -e 40 -c 1 -i 0 -a 1 -x {0.0 3.0 -1 ------- null}
d -t 0.040004 -s 4 -d 5 -p tcp -e 40 -c 1 -i 0 -a 1 -x {0.0 3.0 0 ------- null}
d -t 0.040004 -s 2 -d 5 -p tcp -e 40 -c 1 -i 0 -a 1 -x {0.0 3.0 0 ------- null}
d -t 0.040004 -s 1 -d 5 -p tcp -e 40 -c 1 -i 0 -a 1 -x {0.0 3.0 0 ------- null}
r -t 0.080004 -s 5 -d 3 -p tcp -e 40 -c 1 -i 0 -a 1 -x {0.0 3.0 0 ------- null}
h -t 0.080004 -s 3 -d 5 -p ack -e 40 -c 1 -i 1 -a 1 -x {3.0 0.0 0 ------- null}
+ -t 0.120004 -s 3 -d 5 -p ack -e 40 -c 1 -i 1 -a 1 -x {3.0 0.0 0 ------- null}
- -t 0.120004 -s 3 -d 5 -p ack -e 40 -c 1 -i 1 -a 1 -x {3.0 0.0 0 ------- null}
h -t 0.120004 -s 3 -d 5 -p ack -e 40 -c 1 -i 1 -a 1 -x {3.0 0.0 -1 ------- null}
d -t 0.120008 -s 4 -d 5 -p ack -e 40 -c 1 -i 1 -a 1 -x {3.0 0.0 0 ------- null}
d -t 0.120008 -s 2 -d 5 -p ack -e 40 -c 1 -i 1 -a 1 -x {3.0 0.0 0 ------- null}
d -t 0.120008 -s 1 -d 5 -p ack -e 40 -c 1 -i 1 -a 1 -x {3.0 0.0 0 ------- null}
r -t 0.160008 -s 5 -d 0 -p ack -e 40 -c 1 -i 1 -a 1 -x {3.0 0.0 0 ------- null}
h -t 0.160008 -s 0 -d 5 -p tcp -e 1040 -c 1 -i 2 -a 1 -x {0.0 3.0 1 ------- null}
h -t 0.160008 -s 0 -d 5 -p tcp -e 1040 -c 1 -i 3 -a 1 -x {0.0 3.0 2 ------- null}
+ -t 0.200008 -s 0 -d 5 -p tcp -e 1040 -c 1 -i 2 -a 1 -x {0.0 3.0 1 ------- null}
- -t 0.200008 -s 0 -d 5 -p tcp -e 1040 -c 1 -i 2 -a 1 -x {0.0 3.0 1 ------- null}
h -t 0.200008 -s 0 -d 5 -p tcp -e 1040 -c 1 -i 2 -a 1 -x {0.0 3.0 -1 ------- null}
+ -t 0.200008 -s 0 -d 5 -p tcp -e 1040 -c 1 -i 3 -a 1 -x {0.0 3.0 2 ------- null}
d -t 0.200012 -s 4 -d 5 -p tcp -e 1040 -c 1 -i 2 -a 1 -x {0.0 3.0 1 ------- null}
d -t 0.200012 -s 2 -d 5 -p tcp -e 1040 -c 1 -i 2 -a 1 -x {0.0 3.0 1 ------- null}
d -t 0.200012 -s 1 -d 5 -p tcp -e 1040 -c 1 -i 2 -a 1 -x {0.0 3.0 1 ------- null}
- -t 0.204424 -s 0 -d 5 -p tcp -e 1040 -c 1 -i 3 -a 1 -x {0.0 3.0 2 ------- null}
h -t 0.204424 -s 0 -d 5 -p tcp -e 1040 -c 1 -i 3 -a 1 -x {0.0 3.0 -1 ------- null}
d -t 0.204428 -s 4 -d 5 -p tcp -e 1040 -c 1 -i 3 -a 1 -x {0.0 3.0 2 ------- null}
d -t 0.204428 -s 2 -d 5 -p tcp -e 1040 -c 1 -i 3 -a 1 -x {0.0 3.0 2 ------- null}
d -t 0.204428 -s 1 -d 5 -p tcp -e 1040 -c 1 -i 3 -a 1 -x {0.0 3.0 2 ------- null}
r -t 0.240012 -s 5 -d 3 -p tcp -e 1040 -c 1 -i 2 -a 1 -x {0.0 3.0 1 ------- null}
h -t 0.240012 -s 3 -d 5 -p ack -e 40 -c 1 -i 4 -a 1 -x {3.0 0.0 1 ------- null}
r -t 0.244428 -s 5 -d 3 -p tcp -e 1040 -c 1 -i 3 -a 1 -x {0.0 3.0 2 ------- null}
h -t 0.244428 -s 3 -d 5 -p ack -e 40 -c 1 -i 5 -a 1 -x {3.0 0.0 2 ------- null}
+ -t 0.280012 -s 3 -d 5 -p ack -e 40 -c 1 -i 4 -a 1 -x {3.0 0.0 1 ------- null}
- -t 0.280012 -s 3 -d 5 -p ack -e 40 -c 1 -i 4 -a 1 -x {3.0 0.0 1 ------- null}
h -t 0.280012 -s 3 -d 5 -p ack -e 40 -c 1 -i 4 -a 1 -x {3.0 0.0 -1 ------- null}
d -t 0.280016 -s 4 -d 5 -p ack -e 40 -c 1 -i 4 -a 1 -x {3.0 0.0 1 ------- null}
d -t 0.280016 -s 2 -d 5 -p ack -e 40 -c 1 -i 4 -a 1 -x {3.0 0.0 1 ------- null}
d -t 0.280016 -s 1 -d 5 -p ack -e 40 -c 1 -i 4 -a 1 -x {3.0 0.0 1 ------- null}
+ -t 0.284428 -s 3 -d 5 -p ack -e 40 -c 1 -i 5 -a 1 -x {3.0 0.0 2 ------- null}
- -t 0.284428 -s 3 -d 5 -p ack -e 40 -c 1 -i 5 -a 1 -x {3.0 0.0 2 ------- null}
h -t 0.284428 -s 3 -d 5 -p ack -e 40 -c 1 -i 5 -a 1 -x {3.0 0.0 -1 ------- null}
d -t 0.284432 -s 4 -d 5 -p ack -e 40 -c 1 -i 5 -a 1 -x {3.0 0.0 2 ------- null}
d -t 0.284432 -s 2 -d 5 -p ack -e 40 -c 1 -i 5 -a 1 -x {3.0 0.0 2 ------- null}
d -t 0.284432 -s 1 -d 5 -p ack -e 40 -c 1 -i 5 -a 1 -x {3.0 0.0 2 ------- null}
r -t 0.320016 -s 5 -d 0 -p ack -e 40 -c 1 -i 4 -a 1 -x {3.0 0.0 1 ------- null}
h -t 0.320016 -s 0 -d 5 -p tcp -e 1040 -c 1 -i 6 -a 1 -x {0.0 3.0 3 ------- null}
h -t 0.320016 -s 0 -d 5 -p tcp -e 1040 -c 1 -i 7 -a 1 -x {0.0 3.0 4 ------- null}
r -t 0.324432 -s 5 -d 0 -p ack -e 40 -c 1 -i 5 -a 1 -x {3.0 0.0 2 ------- null}
h -t 0.324432 -s 0 -d 5 -p tcp -e 1040 -c 1 -i 8 -a 1 -x {0.0 3.0 5 ------- null}
h -t 0.324432 -s 0 -d 5 -p tcp -e 1040 -c 1 -i 9 -a 1 -x {0.0 3.0 6 ------- null}
+ -t 0.360016 -s 0 -d 5 -p tcp -e 1040 -c 1 -i 6 -a 1 -x {0.0 3.0 3 ------- null}
- -t 0.360016 -s 0 -d 5 -p tcp -e 1040 -c 1 -i 6 -a 1 -x {0.0 3.0 3 ------- null}
h -t 0.360016 -s 0 -d 5 -p tcp -e 1040 -c 1 -i 6 -a 1 -x {0.0 3.0 -1 ------- null}
+ -t 0.360016 -s 0 -d 5 -p tcp -e 1040 -c 1 -i 7 -a 1 -x {0.0 3.0 4 ------- null}
d -t 0.36002 -s 4 -d 5 -p tcp -e 1040 -c 1 -i 6 -a 1 -x {0.0 3.0 3 ------- null}
d -t 0.36002 -s 2 -d 5 -p tcp -e 1040 -c 1 -i 6 -a 1 -x {0.0 3.0 3 ------- null}
d -t 0.36002 -s 1 -d 5 -p tcp -e 1040 -c 1 -i 6 -a 1 -x {0.0 3.0 3 ------- null}
+ -t 0.364432 -s 0 -d 5 -p tcp -e 1040 -c 1 -i 8 -a 1 -x {0.0 3.0 5 ------- null}
+ -t 0.364432 -s 0 -d 5 -p tcp -e 1040 -c 1 -i 9 -a 1 -x {0.0 3.0 6 ------- null}
- -t 0.364432 -s 0 -d 5 -p tcp -e 1040 -c 1 -i 7 -a 1 -x {0.0 3.0 4 ------- null}
h -t 0.364432 -s 0 -d 5 -p tcp -e 1040 -c 1 -i 7 -a 1 -x {0.0 3.0 -1 ------- null}
d -t 0.364436 -s 4 -d 5 -p tcp -e 1040 -c 1 -i 7 -a 1 -x {0.0 3.0 4 ------- null}
d -t 0.364436 -s 2 -d 5 -p tcp -e 1040 -c 1 -i 7 -a 1 -x {0.0 3.0 4 ------- null}
d -t 0.364436 -s 1 -d 5 -p tcp -e 1040 -c 1 -i 7 -a 1 -x {0.0 3.0 4 ------- null}
- -t 0.368848 -s 0 -d 5 -p tcp -e 1040 -c 1 -i 8 -a 1 -x {0.0 3.0 5 ------- null}
h -t 0.368848 -s 0 -d 5 -p tcp -e 1040 -c 1 -i 8 -a 1 -x {0.0 3.0 -1 ------- null}
d -t 0.368852 -s 4 -d 5 -p tcp -e 1040 -c 1 -i 8 -a 1 -x {0.0 3.0 5 ------- null}
d -t 0.368852 -s 2 -d 5 -p tcp -e 1040 -c 1 -i 8 -a 1 -x {0.0 3.0 5 ------- null}
d -t 0.368852 -s 1 -d 5 -p tcp -e 1040 -c 1 -i 8 -a 1 -x {0.0 3.0 5 ------- null}
- -t 0.373264 -s 0 -d 5 -p tcp -e 1040 -c 1 -i 9 -a 1 -x {0.0 3.0 6 ------- null}
h -t 0.373264 -s 0 -d 5 -p tcp -e 1040 -c 1 -i 9 -a 1 -x {0.0 3.0 -1 ------- null}
d -t 0.373268 -s 4 -d 5 -p tcp -e 1040 -c 1 -i 9 -a 1 -x {0.0 3.0 6 ------- null}
d -t 0.373268 -s 2 -d 5 -p tcp -e 1040 -c 1 -i 9 -a 1 -x {0.0 3.0 6 ------- null}
d -t 0.373268 -s 1 -d 5 -p tcp -e 1040 -c 1 -i 9 -a 1 -x {0.0 3.0 6 ------- null}
r -t 0.40002 -s 5 -d 3 -p tcp -e 1040 -c 1 -i 6 -a 1 -x {0.0 3.0 3 ------- null}
h -t 0.40002 -s 3 -d 5 -p ack -e 40 -c 1 -i 10 -a 1 -x {3.0 0.0 3 ------- null}
r -t 0.404436 -s 5 -d 3 -p tcp -e 1040 -c 1 -i 7 -a 1 -x {0.0 3.0 4 ------- null}
h -t 0.404436 -s 3 -d 5 -p ack -e 40 -c 1 -i 11 -a 1 -x {3.0 0.0 4 ------- null}
r -t 0.408852 -s 5 -d 3 -p tcp -e 1040 -c 1 -i 8 -a 1 -x {0.0 3.0 5 ------- null}
h -t 0.408852 -s 3 -d 5 -p ack -e 40 -c 1 -i 12 -a 1 -x {3.0 0.0 5 ------- null}
r -t 0.413268 -s 5 -d 3 -p tcp -e 1040 -c 1 -i 9 -a 1 -x {0.0 3.0 6 ------- null}
h -t 0.413268 -s 3 -d 5 -p ack -e 40 -c 1 -i 13 -a 1 -x {3.0 0.0 6 ------- null}
+ -t 0.44002 -s 3 -d 5 -p ack -e 40 -c 1 -i 10 -a 1 -x {3.0 0.0 3 ------- null}
- -t 0.44002 -s 3 -d 5 -p ack -e 40 -c 1 -i 10 -a 1 -x {3.0 0.0 3 ------- null}
h -t 0.44002 -s 3 -d 5 -p ack -e 40 -c 1 -i 10 -a 1 -x {3.0 0.0 -1 ------- null}
d -t 0.440024 -s 4 -d 5 -p ack -e 40 -c 1 -i 10 -a 1 -x {3.0 0.0 3 ------- null}
d -t 0.440024 -s 2 -d 5 -p ack -e 40 -c 1 -i 10 -a 1 -x {3.0 0.0 3 ------- null}
d -t 0.440024 -s 1 -d 5 -p ack -e 40 -c 1 -i 10 -a 1 -x {3.0 0.0 3 ------- null}
+ -t 0.444436 -s 3 -d 5 -p ack -e 40 -c 1 -i 11 -a 1 -x {3.0 0.0 4 ------- null}
- -t 0.444436 -s 3 -d 5 -p ack -e 40 -c 1 -i 11 -a 1 -x {3.0 0.0 4 ------- null}
h -t 0.444436 -s 3 -d 5 -p ack -e 40 -c 1 -i 11 -a 1 -x {3.0 0.0 -1 ------- null}
d -t 0.44444 -s 4 -d 5 -p ack -e 40 -c 1 -i 11 -a 1 -x {3.0 0.0 4 ------- null}
d -t 0.44444 -s 2 -d 5 -p ack -e 40 -c 1 -i 11 -a 1 -x {3.0 0.0 4 ------- null}
d -t 0.44444 -s 1 -d 5 -p ack -e 40 -c 1 -i 11 -a 1 -x {3.0 0.0 4 ------- null}
+ -t 0.448852 -s 3 -d 5 -p ack -e 40 -c 1 -i 12 -a 1 -x {3.0 0.0 5 ------- null}
- -t 0.448852 -s 3 -d 5 -p ack -e 40 -c 1 -i 12 -a 1 -x {3.0 0.0 5 ------- null}
h -t 0.448852 -s 3 -d 5 -p ack -e 40 -c 1 -i 12 -a 1 -x {3.0 0.0 -1 ------- null}
d -t 0.448856 -s 4 -d 5 -p ack -e 40 -c 1 -i 12 -a 1 -x {3.0 0.0 5 ------- null}
d -t 0.448856 -s 2 -d 5 -p ack -e 40 -c 1 -i 12 -a 1 -x {3.0 0.0 5 ------- null}
d -t 0.448856 -s 1 -d 5 -p ack -e 40 -c 1 -i 12 -a 1 -x {3.0 0.0 5 ------- null}
+ -t 0.453268 -s 3 -d 5 -p ack -e 40 -c 1 -i 13 -a 1 -x {3.0 0.0 6 ------- null}
- -t 0.453268 -s 3 -d 5 -p ack -e 40 -c 1 -i 13 -a 1 -x {3.0 0.0 6 ------- null}
h -t 0.453268 -s 3 -d 5 -p ack -e 40 -c 1 -i 13 -a 1 -x {3.0 0.0 -1 ------- null}
d -t 0.453272 -s 4 -d 5 -p ack -e 40 -c 1 -i 13 -a 1 -x {3.0 0.0 6 ------- null}
d -t 0.453272 -s 2 -d 5 -p ack -e 40 -c 1 -i 13 -a 1 -x {3.0 0.0 6 ------- null}
d -t 0.453272 -s 1 -d 5 -p ack -e 40 -c 1 -i 13 -a 1 -x {3.0 0.0 6 ------- null}
r -t 0.480024 -s 5 -d 0 -p ack -e 40 -c 1 -i 10 -a 1 -x {3.0 0.0 3 ------- null}
h -t 0.480024 -s 0 -d 5 -p tcp -e 1040 -c 1 -i 14 -a 1 -x {0.0 3.0 7 ------- null}
h -t 0.480024 -s 0 -d 5 -p tcp -e 1040 -c 1 -i 15 -a 1 -x {0.0 3.0 8 ------- null}
r -t 0.48444 -s 5 -d 0 -p ack -e 40 -c 1 -i 11 -a 1 -x {3.0 0.0 4 ------- null}
h -t 0.48444 -s 0 -d 5 -p tcp -e 1040 -c 1 -i 16 -a 1 -x {0.0 3.0 9 ------- null}
h -t 0.48444 -s 0 -d 5 -p tcp -e 1040 -c 1 -i 17 -a 1 -x {0.0 3.0 10 ------- null}
r -t 0.488856 -s 5 -d 0 -p ack -e 40 -c 1 -i 12 -a 1 -x {3.0 0.0 5 ------- null}
h -t 0.488856 -s 0 -d 5 -p tcp -e 1040 -c 1 -i 18 -a 1 -x {0.0 3.0 11 ------- null}
h -t 0.488856 -s 0 -d 5 -p tcp -e 1040 -c 1 -i 19 -a 1 -x {0.0 3.0 12 ------- null}
r -t 0.493272 -s 5 -d 0 -p ack -e 40 -c 1 -i 13 -a 1 -x {3.0 0.0 6 ------- null}
h -t 0.493272 -s 0 -d 5 -p tcp -e 1040 -c 1 -i 20 -a 1 -x {0.0 3.0 13 ------- null}
h -t 0.493272 -s 0 -d 5 -p tcp -e 1040 -c 1 -i 21 -a 1 -x {0.0 3.0 14 ------- null}
+ -t 0.520024 -s 0 -d 5 -p tcp -e 1040 -c 1 -i 14 -a 1 -x {0.0 3.0 7 ------- null}
- -t 0.520024 -s 0 -d 5 -p tcp -e 1040 -c 1 -i 14 -a 1 -x {0.0 3.0 7 ------- null}
h -t 0.520024 -s 0 -d 5 -p tcp -e 1040 -c 1 -i 14 -a 1 -x {0.0 3.0 -1 ------- null}
+ -t 0.520024 -s 0 -d 5 -p tcp -e 1040 -c 1 -i 15 -a 1 -x {0.0 3.0 8 ------- null}
d -t 0.520028 -s 4 -d 5 -p tcp -e 1040 -c 1 -i 14 -a 1 -x {0.0 3.0 7 ------- null}
d -t 0.520028 -s 2 -d 5 -p tcp -e 1040 -c 1 -i 14 -a 1 -x {0.0 3.0 7 ------- null}
d -t 0.520028 -s 1 -d 5 -p tcp -e 1040 -c 1 -i 14 -a 1 -x {0.0 3.0 7 ------- null}
+ -t 0.52444 -s 0 -d 5 -p tcp -e 1040 -c 1 -i 16 -a 1 -x {0.0 3.0 9 ------- null}
+ -t 0.52444 -s 0 -d 5 -p tcp -e 1040 -c 1 -i 17 -a 1 -x {0.0 3.0 10 ------- null}
- -t 0.52444 -s 0 -d 5 -p tcp -e 1040 -c 1 -i 15 -a 1 -x {0.0 3.0 8 ------- null}
h -t 0.52444 -s 0 -d 5 -p tcp -e 1040 -c 1 -i 15 -a 1 -x {0.0 3.0 -1 ------- null}
d -t 0.524444 -s 4 -d 5 -p tcp -e 1040 -c 1 -i 15 -a 1 -x {0.0 3.0 8 ------- null}
d -t 0.524444 -s 2 -d 5 -p tcp -e 1040 -c 1 -i 15 -a 1 -x {0.0 3.0 8 ------- null}
d -t 0.524444 -s 1 -d 5 -p tcp -e 1040 -c 1 -i 15 -a 1 -x {0.0 3.0 8 ------- null}
+ -t 0.528856 -s 0 -d 5 -p tcp -e 1040 -c 1 -i 18 -a 1 -x {0.0 3.0 11 ------- null}
+ -t 0.528856 -s 0 -d 5 -p tcp -e 1040 -c 1 -i 19 -a 1 -x {0.0 3.0 12 ------- null}
- -t 0.528856 -s 0 -d 5 -p tcp -e 1040 -c 1 -i 16 -a 1 -x {0.0 3.0 9 ------- null}
h -t 0.528856 -s 0 -d 5 -p tcp -e 1040 -c 1 -i 16 -a 1 -x {0.0 3.0 -1 ------- null}
d -t 0.52886 -s 4 -d 5 -p tcp -e 1040 -c 1 -i 16 -a 1 -x {0.0 3.0 9 ------- null}
d -t 0.52886 -s 2 -d 5 -p tcp -e 1040 -c 1 -i 16 -a 1 -x {0.0 3.0 9 ------- null}
d -t 0.52886 -s 1 -d 5 -p tcp -e 1040 -c 1 -i 16 -a 1 -x {0.0 3.0 9 ------- null}
+ -t 0.533272 -s 0 -d 5 -p tcp -e 1040 -c 1 -i 20 -a 1 -x {0.0 3.0 13 ------- null}
+ -t 0.533272 -s 0 -d 5 -p tcp -e 1040 -c 1 -i 21 -a 1 -x {0.0 3.0 14 ------- null}
- -t 0.533272 -s 0 -d 5 -p tcp -e 1040 -c 1 -i 17 -a 1 -x {0.0 3.0 10 ------- null}
h -t 0.533272 -s 0 -d 5 -p tcp -e 1040 -c 1 -i 17 -a 1 -x {0.0 3.0 -1 ------- null}
d -t 0.533276 -s 4 -d 5 -p tcp -e 1040 -c 1 -i 17 -a 1 -x {0.0 3.0 10 ------- null}
d -t 0.533276 -s 2 -d 5 -p tcp -e 1040 -c 1 -i 17 -a 1 -x {0.0 3.0 10 ------- null}
d -t 0.533276 -s 1 -d 5 -p tcp -e 1040 -c 1 -i 17 -a 1 -x {0.0 3.0 10 ------- null}
- -t 0.537688 -s 0 -d 5 -p tcp -e 1040 -c 1 -i 18 -a 1 -x {0.0 3.0 11 ------- null}
h -t 0.537688 -s 0 -d 5 -p tcp -e 1040 -c 1 -i 18 -a 1 -x {0.0 3.0 -1 ------- null}
d -t 0.537692 -s 4 -d 5 -p tcp -e 1040 -c 1 -i 18 -a 1 -x {0.0 3.0 11 ------- null}
d -t 0.537692 -s 2 -d 5 -p tcp -e 1040 -c 1 -i 18 -a 1 -x {0.0 3.0 11 ------- null}
d -t 0.537692 -s 1 -d 5 -p tcp -e 1040 -c 1 -i 18 -a 1 -x {0.0 3.0 11 ------- null}
- -t 0.542104 -s 0 -d 5 -p tcp -e 1040 -c 1 -i 19 -a 1 -x {0.0 3.0 12 ------- null}
h -t 0.542104 -s 0 -d 5 -p tcp -e 1040 -c 1 -i 19 -a 1 -x {0.0 3.0 -1 ------- null}
d -t 0.542108 -s 4 -d 5 -p tcp -e 1040 -c 1 -i 19 -a 1 -x {0.0 3.0 12 ------- null}
d -t 0.542108 -s 2 -d 5 -p tcp -e 1040 -c 1 -i 19 -a 1 -x {0.0 3.0 12 ------- null}
d -t 0.542108 -s 1 -d 5 -p tcp -e 1040 -c 1 -i 19 -a 1 -x {0.0 3.0 12 ------- null}
- -t 0.54652 -s 0 -d 5 -p tcp -e 1040 -c 1 -i 20 -a 1 -x {0.0 3.0 13 ------- null}
h -t 0.54652 -s 0 -d 5 -p tcp -e 1040 -c 1 -i 20 -a 1 -x {0.0 3.0 -1 ------- null}
d -t 0.546524 -s 4 -d 5 -p tcp -e 1040 -c 1 -i 20 -a 1 -x {0.0 3.0 13 ------- null}
d -t 0.546524 -s 2 -d 5 -p tcp -e 1040 -c 1 -i 20 -a 1 -x {0.0 3.0 13 ------- null}
d -t 0.546524 -s 1 -d 5 -p tcp -e 1040 -c 1 -i 20 -a 1 -x {0.0 3.0 13 ------- null}
- -t 0.550936 -s 0 -d 5 -p tcp -e 1040 -c 1 -i 21 -a 1 -x {0.0 3.0 14 ------- null}
h -t 0.550936 -s 0 -d 5 -p tcp -e 1040 -c 1 -i 21 -a 1 -x {0.0 3.0 -1 ------- null}
d -t 0.55094 -s 4 -d 5 -p tcp -e 1040 -c 1 -i 21 -a 1 -x {0.0 3.0 14 ------- null}
d -t 0.55094 -s 2 -d 5 -p tcp -e 1040 -c 1 -i 21 -a 1 -x {0.0 3.0 14 ------- null}
d -t 0.55094 -s 1 -d 5 -p tcp -e 1040 -c 1 -i 21 -a 1 -x {0.0 3.0 14 ------- null}
r -t 0.560028 -s 5 -d 3 -p tcp -e 1040 -c 1 -i 14 -a 1 -x {0.0 3.0 7 ------- null}
h -t 0.560028 -s 3 -d 5 -p ack -e 40 -c 1 -i 22 -a 1 -x {3.0 0.0 7 ------- null}
r -t 0.564444 -s 5 -d 3 -p tcp -e 1040 -c 1 -i 15 -a 1 -x {0.0 3.0 8 ------- null}
h -t 0.564444 -s 3 -d 5 -p ack -e 40 -c 1 -i 23 -a 1 -x {3.0 0.0 8 ------- null}
r -t 0.56886 -s 5 -d 3 -p tcp -e 1040 -c 1 -i 16 -a 1 -x {0.0 3.0 9 ------- null}
h -t 0.56886 -s 3 -d 5 -p ack -e 40 -c 1 -i 24 -a 1 -x {3.0 0.0 9 ------- null}
r -t 0.573276 -s 5 -d 3 -p tcp -e 1040 -c 1 -i 17 -a 1 -x {0.0 3.0 10 ------- null}
h -t 0.573276 -s 3 -d 5 -p ack -e 40 -c 1 -i 25 -a 1 -x {3.0 0.0 10 ------- null}
r -t 0.577692 -s 5 -d 3 -p tcp -e 1040 -c 1 -i 18 -a 1 -x {0.0 3.0 11 ------- null}
h -t 0.577692 -s 3 -d 5 -p ack -e 40 -c 1 -i 26 -a 1 -x {3.0 0.0 11 ------- null}
r -t 0.582108 -s 5 -d 3 -p tcp -e 1040 -c 1 -i 19 -a 1 -x {0.0 3.0 12 ------- null}
h -t 0.582108 -s 3 -d 5 -p ack -e 40 -c 1 -i 27 -a 1 -x {3.0 0.0 12 ------- null}
r -t 0.586524 -s 5 -d 3 -p tcp -e 1040 -c 1 -i 20 -a 1 -x {0.0 3.0 13 ------- null}
h -t 0.586524 -s 3 -d 5 -p ack -e 40 -c 1 -i 28 -a 1 -x {3.0 0.0 13 ------- null}
r -t 0.59094 -s 5 -d 3 -p tcp -e 1040 -c 1 -i 21 -a 1 -x {0.0 3.0 14 ------- null}
h -t 0.59094 -s 3 -d 5 -p ack -e 40 -c 1 -i 29 -a 1 -x {3.0 0.0 14 ------- null}
+ -t 0.600028 -s 3 -d 5 -p ack -e 40 -c 1 -i 22 -a 1 -x {3.0 0.0 7 ------- null}
- -t 0.600028 -s 3 -d 5 -p ack -e 40 -c 1 -i 22 -a 1 -x {3.0 0.0 7 ------- null}
h -t 0.600028 -s 3 -d 5 -p ack -e 40 -c 1 -i 22 -a 1 -x {3.0 0.0 -1 ------- null}
d -t 0.600032 -s 4 -d 5 -p ack -e 40 -c 1 -i 22 -a 1 -x {3.0 0.0 7 ------- null}
d -t 0.600032 -s 2 -d 5 -p ack -e 40 -c 1 -i 22 -a 1 -x {3.0 0.0 7 ------- null}
d -t 0.600032 -s 1 -d 5 -p ack -e 40 -c 1 -i 22 -a 1 -x {3.0 0.0 7 ------- null}
+ -t 0.604444 -s 3 -d 5 -p ack -e 40 -c 1 -i 23 -a 1 -x {3.0 0.0 8 ------- null}
- -t 0.604444 -s 3 -d 5 -p ack -e 40 -c 1 -i 23 -a 1 -x {3.0 0.0 8 ------- null}
h -t 0.604444 -s 3 -d 5 -p ack -e 40 -c 1 -i 23 -a 1 -x {3.0 0.0 -1 ------- null}
d -t 0.604448 -s 4 -d 5 -p ack -e 40 -c 1 -i 23 -a 1 -x {3.0 0.0 8 ------- null}
d -t 0.604448 -s 2 -d 5 -p ack -e 40 -c 1 -i 23 -a 1 -x {3.0 0.0 8 ------- null}
d -t 0.604448 -s 1 -d 5 -p ack -e 40 -c 1 -i 23 -a 1 -x {3.0 0.0 8 ------- null}
+ -t 0.60886 -s 3 -d 5 -p ack -e 40 -c 1 -i 24 -a 1 -x {3.0 0.0 9 ------- null}
- -t 0.60886 -s 3 -d 5 -p ack -e 40 -c 1 -i 24 -a 1 -x {3.0 0.0 9 ------- null}
h -t 0.60886 -s 3 -d 5 -p ack -e 40 -c 1 -i 24 -a 1 -x {3.0 0.0 -1 ------- null}
d -t 0.608864 -s 4 -d 5 -p ack -e 40 -c 1 -i 24 -a 1 -x {3.0 0.0 9 ------- null}
d -t 0.608864 -s 2 -d 5 -p ack -e 40 -c 1 -i 24 -a 1 -x {3.0 0.0 9 ------- null}
d -t 0.608864 -s 1 -d 5 -p ack -e 40 -c 1 -i 24 -a 1 -x {3.0 0.0 9 ------- null}
+ -t 0.613276 -s 3 -d 5 -p ack -e 40 -c 1 -i 25 -a 1 -x {3.0 0.0 10 ------- null}
- -t 0.613276 -s 3 -d 5 -p ack -e 40 -c 1 -i 25 -a 1 -x {3.0 0.0 10 ------- null}
h -t 0.613276 -s 3 -d 5 -p ack -e 40 -c 1 -i 25 -a 1 -x {3.0 0.0 -1 ------- null}
d -t 0.61328 -s 4 -d 5 -p ack -e 40 -c 1 -i 25 -a 1 -x {3.0 0.0 10 ------- null}
d -t 0.61328 -s 2 -d 5 -p ack -e 40 -c 1 -i 25 -a 1 -x {3.0 0.0 10 ------- null}
d -t 0.61328 -s 1 -d 5 -p ack -e 40 -c 1 -i 25 -a 1 -x {3.0 0.0 10 ------- null}
+ -t 0.617692 -s 3 -d 5 -p ack -e 40 -c 1 -i 26 -a 1 -x {3.0 0.0 11 ------- null}
- -t 0.617692 -s 3 -d 5 -p ack -e 40 -c 1 -i 26 -a 1 -x {3.0 0.0 11 ------- null}
h -t 0.617692 -s 3 -d 5 -p ack -e 40 -c 1 -i 26 -a 1 -x {3.0 0.0 -1 ------- null}
d -t 0.617696 -s 4 -d 5 -p ack -e 40 -c 1 -i 26 -a 1 -x {3.0 0.0 11 ------- null}
d -t 0.617696 -s 2 -d 5 -p ack -e 40 -c 1 -i 26 -a 1 -x {3.0 0.0 11 ------- null}
d -t 0.617696 -s 1 -d 5 -p ack -e 40 -c 1 -i 26 -a 1 -x {3.0 0.0 11 ------- null}
+ -t 0.622108 -s 3 -d 5 -p ack -e 40 -c 1 -i 27 -a 1 -x {3.0 0.0 12 ------- null}
- -t 0.622108 -s 3 -d 5 -p ack -e 40 -c 1 -i 27 -a 1 -x {3.0 0.0 12 ------- null}
h -t 0.622108 -s 3 -d 5 -p ack -e 40 -c 1 -i 27 -a 1 -x {3.0 0.0 -1 ------- null}
d -t 0.622112 -s 4 -d 5 -p ack -e 40 -c 1 -i 27 -a 1 -x {3.0 0.0 12 ------- null}
d -t 0.622112 -s 2 -d 5 -p ack -e 40 -c 1 -i 27 -a 1 -x {3.0 0.0 12 ------- null}
d -t 0.622112 -s 1 -d 5 -p ack -e 40 -c 1 -i 27 -a 1 -x {3.0 0.0 12 ------- null}
+ -t 0.626524 -s 3 -d 5 -p ack -e 40 -c 1 -i 28 -a 1 -x {3.0 0.0 13 ------- null}
- -t 0.626524 -s 3 -d 5 -p ack -e 40 -c 1 -i 28 -a 1 -x {3.0 0.0 13 ------- null}
h -t 0.626524 -s 3 -d 5 -p ack -e 40 -c 1 -i 28 -a 1 -x {3.0 0.0 -1 ------- null}
d -t 0.626528 -s 4 -d 5 -p ack -e 40 -c 1 -i 28 -a 1 -x {3.0 0.0 13 ------- null}
d -t 0.626528 -s 2 -d 5 -p ack -e 40 -c 1 -i 28 -a 1 -x {3.0 0.0 13 ------- null}
d -t 0.626528 -s 1 -d 5 -p ack -e 40 -c 1 -i 28 -a 1 -x {3.0 0.0 13 ------- null}
+ -t 0.63094 -s 3 -d 5 -p ack -e 40 -c 1 -i 29 -a 1 -x {3.0 0.0 14 ------- null}
- -t 0.63094 -s 3 -d 5 -p ack -e 40 -c 1 -i 29 -a 1 -x {3.0 0.0 14 ------- null}
h -t 0.63094 -s 3 -d 5 -p ack -e 40 -c 1 -i 29 -a 1 -x {3.0 0.0 -1 ------- null}
d -t 0.630944 -s 4 -d 5 -p ack -e 40 -c 1 -i 29 -a 1 -x {3.0 0.0 14 ------- null}
d -t 0.630944 -s 2 -d 5 -p ack -e 40 -c 1 -i 29 -a 1 -x {3.0 0.0 14 ------- null}
d -t 0.630944 -s 1 -d 5 -p ack -e 40 -c 1 -i 29 -a 1 -x {3.0 0.0 14 ------- null}
r -t 0.640032 -s 5 -d 0 -p ack -e 40 -c 1 -i 22 -a 1 -x {3.0 0.0 7 ------- null}
h -t 0.640032 -s 0 -d 5 -p tcp -e 1040 -c 1 -i 30 -a 1 -x {0.0 3.0 15 ------- null}
h -t 0.640032 -s 0 -d 5 -p tcp -e 1040 -c 1 -i 31 -a 1 -x {0.0 3.0 16 ------- null}
r -t 0.644448 -s 5 -d 0 -p ack -e 40 -c 1 -i 23 -a 1 -x {3.0 0.0 8 ------- null}
h -t 0.644448 -s 0 -d 5 -p tcp -e 1040 -c 1 -i 32 -a 1 -x {0.0 3.0 17 ------- null}
h -t 0.644448 -s 0 -d 5 -p tcp -e 1040 -c 1 -i 33 -a 1 -x {0.0 3.0 18 ------- null}
r -t 0.648864 -s 5 -d 0 -p ack -e 40 -c 1 -i 24 -a 1 -x {3.0 0.0 9 ------- null}
h -t 0.648864 -s 0 -d 5 -p tcp -e 1040 -c 1 -i 34 -a 1 -x {0.0 3.0 19 ------- null}
h -t 0.648864 -s 0 -d 5 -p tcp -e 1040 -c 1 -i 35 -a 1 -x {0.0 3.0 20 ------- null}
r -t 0.65328 -s 5 -d 0 -p ack -e 40 -c 1 -i 25 -a 1 -x {3.0 0.0 10 ------- null}
h -t 0.65328 -s 0 -d 5 -p tcp -e 1040 -c 1 -i 36 -a 1 -x {0.0 3.0 21 ------- null}
h -t 0.65328 -s 0 -d 5 -p tcp -e 1040 -c 1 -i 37 -a 1 -x {0.0 3.0 22 ------- null}
r -t 0.657696 -s 5 -d 0 -p ack -e 40 -c 1 -i 26 -a 1 -x {3.0 0.0 11 ------- null}
h -t 0.657696 -s 0 -d 5 -p tcp -e 1040 -c 1 -i 38 -a 1 -x {0.0 3.0 23 ------- null}
h -t 0.657696 -s 0 -d 5 -p tcp -e 1040 -c 1 -i 39 -a 1 -x {0.0 3.0 24 ------- null}
r -t 0.662112 -s 5 -d 0 -p ack -e 40 -c 1 -i 27 -a 1 -x {3.0 0.0 12 ------- null}
h -t 0.662112 -s 0 -d 5 -p tcp -e 1040 -c 1 -i 40 -a 1 -x {0.0 3.0 25 ------- null}
h -t 0.662112 -s 0 -d 5 -p tcp -e 1040 -c 1 -i 41 -a 1 -x {0.0 3.0 26 ------- null}
r -t 0.666528 -s 5 -d 0 -p ack -e 40 -c 1 -i 28 -a 1 -x {3.0 0.0 13 ------- null}
h -t 0.666528 -s 0 -d 5 -p tcp -e 1040 -c 1 -i 42 -a 1 -x {0.0 3.0 27 ------- null}
h -t 0.666528 -s 0 -d 5 -p tcp -e 1040 -c 1 -i 43 -a 1 -x {0.0 3.0 28 ------- null}
r -t 0.670944 -s 5 -d 0 -p ack -e 40 -c 1 -i 29 -a 1 -x {3.0 0.0 14 ------- null}
h -t 0.670944 -s 0 -d 5 -p tcp -e 1040 -c 1 -i 44 -a 1 -x {0.0 3.0 29 ------- null}
h -t 0.670944 -s 0 -d 5 -p tcp -e 1040 -c 1 -i 45 -a 1 -x {0.0 3.0 30 ------- null}
+ -t 0.680032 -s 0 -d 5 -p tcp -e 1040 -c 1 -i 30 -a 1 -x {0.0 3.0 15 ------- null}
- -t 0.680032 -s 0 -d 5 -p tcp -e 1040 -c 1 -i 30 -a 1 -x {0.0 3.0 15 ------- null}
h -t 0.680032 -s 0 -d 5 -p tcp -e 1040 -c 1 -i 30 -a 1 -x {0.0 3.0 -1 ------- null}
+ -t 0.680032 -s 0 -d 5 -p tcp -e 1040 -c 1 -i 31 -a 1 -x {0.0 3.0 16 ------- null}
d -t 0.680036 -s 4 -d 5 -p tcp -e 1040 -c 1 -i 30 -a 1 -x {0.0 3.0 15 ------- null}
d -t 0.680036 -s 2 -d 5 -p tcp -e 1040 -c 1 -i 30 -a 1 -x {0.0 3.0 15 ------- null}
d -t 0.680036 -s 1 -d 5 -p tcp -e 1040 -c 1 -i 30 -a 1 -x {0.0 3.0 15 ------- null}
+ -t 0.684448 -s 0 -d 5 -p tcp -e 1040 -c 1 -i 32 -a 1 -x {0.0 3.0 17 ------- null}
+ -t 0.684448 -s 0 -d 5 -p tcp -e 1040 -c 1 -i 33 -a 1 -x {0.0 3.0 18 ------- null}
- -t 0.684448 -s 0 -d 5 -p tcp -e 1040 -c 1 -i 31 -a 1 -x {0.0 3.0 16 ------- null}
h -t 0.684448 -s 0 -d 5 -p tcp -e 1040 -c 1 -i 31 -a 1 -x {0.0 3.0 -1 ------- null}
d -t 0.684452 -s 4 -d 5 -p tcp -e 1040 -c 1 -i 31 -a 1 -x {0.0 3.0 16 ------- null}
d -t 0.684452 -s 2 -d 5 -p tcp -e 1040 -c 1 -i 31 -a 1 -x {0.0 3.0 16 ------- null}
d -t 0.684452 -s 1 -d 5 -p tcp -e 1040 -c 1 -i 31 -a 1 -x {0.0 3.0 16 ------- null}
+ -t 0.688864 -s 0 -d 5 -p tcp -e 1040 -c 1 -i 34 -a 1 -x {0.0 3.0 19 ------- null}
+ -t 0.688864 -s 0 -d 5 -p tcp -e 1040 -c 1 -i 35 -a 1 -x {0.0 3.0 20 ------- null}
- -t 0.688864 -s 0 -d 5 -p tcp -e 1040 -c 1 -i 32 -a 1 -x {0.0 3.0 17 ------- null}
h -t 0.688864 -s 0 -d 5 -p tcp -e 1040 -c 1 -i 32 -a 1 -x {0.0 3.0 -1 ------- null}
d -t 0.688868 -s 4 -d 5 -p tcp -e 1040 -c 1 -i 32 -a 1 -x {0.0 3.0 17 ------- null}
d -t 0.688868 -s 2 -d 5 -p tcp -e 1040 -c 1 -i 32 -a 1 -x {0.0 3.0 17 ------- null}
d -t 0.688868 -s 1 -d 5 -p tcp -e 1040 -c 1 -i 32 -a 1 -x {0.0 3.0 17 ------- null}
+ -t 0.69328 -s 0 -d 5 -p tcp -e 1040 -c 1 -i 36 -a 1 -x {0.0 3.0 21 ------- null}
+ -t 0.69328 -s 0 -d 5 -p tcp -e 1040 -c 1 -i 37 -a 1 -x {0.0 3.0 22 ------- null}
- -t 0.69328 -s 0 -d 5 -p tcp -e 1040 -c 1 -i 33 -a 1 -x {0.0 3.0 18 ------- null}
h -t 0.69328 -s 0 -d 5 -p tcp -e 1040 -c 1 -i 33 -a 1 -x {0.0 3.0 -1 ------- null}
d -t 0.693284 -s 4 -d 5 -p tcp -e 1040 -c 1 -i 33 -a 1 -x {0.0 3.0 18 ------- null}
d -t 0.693284 -s 2 -d 5 -p tcp -e 1040 -c 1 -i 33 -a 1 -x {0.0 3.0 18 ------- null}
d -t 0.693284 -s 1 -d 5 -p tcp -e 1040 -c 1 -i 33 -a 1 -x {0.0 3.0 18 ------- null}
+ -t 0.697696 -s 0 -d 5 -p tcp -e 1040 -c 1 -i 38 -a 1 -x {0.0 3.0 23 ------- null}
+ -t 0.697696 -s 0 -d 5 -p tcp -e 1040 -c 1 -i 39 -a 1 -x {0.0 3.0 24 ------- null}
- -t 0.697696 -s 0 -d 5 -p tcp -e 1040 -c 1 -i 34 -a 1 -x {0.0 3.0 19 ------- null}
h -t 0.697696 -s 0 -d 5 -p tcp -e 1040 -c 1 -i 34 -a 1 -x {0.0 3.0 -1 ------- null}
d -t 0.6977 -s 4 -d 5 -p tcp -e 1040 -c 1 -i 34 -a 1 -x {0.0 3.0 19 ------- null}
d -t 0.6977 -s 2 -d 5 -p tcp -e 1040 -c 1 -i 34 -a 1 -x {0.0 3.0 19 ------- null}
d -t 0.6977 -s 1 -d 5 -p tcp -e 1040 -c 1 -i 34 -a 1 -x {0.0 3.0 19 ------- null}
+ -t 0.702112 -s 0 -d 5 -p tcp -e 1040 -c 1 -i 40 -a 1 -x {0.0 3.0 25 ------- null}
+ -t 0.702112 -s 0 -d 5 -p tcp -e 1040 -c 1 -i 41 -a 1 -x {0.0 3.0 26 ------- null}
- -t 0.702112 -s 0 -d 5 -p tcp -e 1040 -c 1 -i 35 -a 1 -x {0.0 3.0 20 ------- null}
h -t 0.702112 -s 0 -d 5 -p tcp -e 1040 -c 1 -i 35 -a 1 -x {0.0 3.0 -1 ------- null}
d -t 0.702116 -s 4 -d 5 -p tcp -e 1040 -c 1 -i 35 -a 1 -x {0.0 3.0 20 ------- null}
d -t 0.702116 -s 2 -d 5 -p tcp -e 1040 -c 1 -i 35 -a 1 -x {0.0 3.0 20 ------- null}
d -t 0.702116 -s 1 -d 5 -p tcp -e 1040 -c 1 -i 35 -a 1 -x {0.0 3.0 20 ------- null}
+ -t 0.706528 -s 0 -d 5 -p tcp -e 1040 -c 1 -i 42 -a 1 -x {0.0 3.0 27 ------- null}
+ -t 0.706528 -s 0 -d 5 -p tcp -e 1040 -c 1 -i 43 -a 1 -x {0.0 3.0 28 ------- null}
- -t 0.706528 -s 0 -d 5 -p tcp -e 1040 -c 1 -i 36 -a 1 -x {0.0 3.0 21 ------- null}
h -t 0.706528 -s 0 -d 5 -p tcp -e 1040 -c 1 -i 36 -a 1 -x {0.0 3.0 -1 ------- null}
d -t 0.706532 -s 4 -d 5 -p tcp -e 1040 -c 1 -i 36 -a 1 -x {0.0 3.0 21 ------- null}
d -t 0.706532 -s 2 -d 5 -p tcp -e 1040 -c 1 -i 36 -a 1 -x {0.0 3.0 21 ------- null}
d -t 0.706532 -s 1 -d 5 -p tcp -e 1040 -c 1 -i 36 -a 1 -x {0.0 3.0 21 ------- null}
+ -t 0.710944 -s 0 -d 5 -p tcp -e 1040 -c 1 -i 44 -a 1 -x {0.0 3.0 29 ------- null}
+ -t 0.710944 -s 0 -d 5 -p tcp -e 1040 -c 1 -i 45 -a 1 -x {0.0 3.0 30 ------- null}
- -t 0.710944 -s 0 -d 5 -p tcp -e 1040 -c 1 -i 37 -a 1 -x {0.0 3.0 22 ------- null}
h -t 0.710944 -s 0 -d 5 -p tcp -e 1040 -c 1 -i 37 -a 1 -x {0.0 3.0 -1 ------- null}
d -t 0.710948 -s 4 -d 5 -p tcp -e 1040 -c 1 -i 37 -a 1 -x {0.0 3.0 22 ------- null}
d -t 0.710948 -s 2 -d 5 -p tcp -e 1040 -c 1 -i 37 -a 1 -x {0.0 3.0 22 ------- null}
d -t 0.710948 -s 1 -d 5 -p tcp -e 1040 -c 1 -i 37 -a 1 -x {0.0 3.0 22 ------- null}
- -t 0.71536 -s 0 -d 5 -p tcp -e 1040 -c 1 -i 38 -a 1 -x {0.0 3.0 23 ------- null}
h -t 0.71536 -s 0 -d 5 -p tcp -e 1040 -c 1 -i 38 -a 1 -x {0.0 3.0 -1 ------- null}
d -t 0.715364 -s 4 -d 5 -p tcp -e 1040 -c 1 -i 38 -a 1 -x {0.0 3.0 23 ------- null}
d -t 0.715364 -s 2 -d 5 -p tcp -e 1040 -c 1 -i 38 -a 1 -x {0.0 3.0 23 ------- null}
d -t 0.715364 -s 1 -d 5 -p tcp -e 1040 -c 1 -i 38 -a 1 -x {0.0 3.0 23 ------- null}
- -t 0.719776 -s 0 -d 5 -p tcp -e 1040 -c 1 -i 39 -a 1 -x {0.0 3.0 24 ------- null}
h -t 0.719776 -s 0 -d 5 -p tcp -e 1040 -c 1 -i 39 -a 1 -x {0.0 3.0 -1 ------- null}
d -t 0.71978 -s 4 -d 5 -p tcp -e 1040 -c 1 -i 39 -a 1 -x {0.0 3.0 24 ------- null}
d -t 0.71978 -s 2 -d 5 -p tcp -e 1040 -c 1 -i 39 -a 1 -x {0.0 3.0 24 ------- null}
d -t 0.71978 -s 1 -d 5 -p tcp -e 1040 -c 1 -i 39 -a 1 -x {0.0 3.0 24 ------- null}
r -t 0.720036 -s 5 -d 3 -p tcp -e 1040 -c 1 -i 30 -a 1 -x {0.0 3.0 15 ------- null}
h -t 0.720036 -s 3 -d 5 -p ack -e 40 -c 1 -i 46 -a 1 -x {3.0 0.0 15 ------- null}
- -t 0.724192 -s 0 -d 5 -p tcp -e 1040 -c 1 -i 40 -a 1 -x {0.0 3.0 25 ------- null}
h -t 0.724192 -s 0 -d 5 -p tcp -e 1040 -c 1 -i 40 -a 1 -x {0.0 3.0 -1 ------- null}
d -t 0.724196 -s 4 -d 5 -p tcp -e 1040 -c 1 -i 40 -a 1 -x {0.0 3.0 25 ------- null}
d -t 0.724196 -s 2 -d 5 -p tcp -e 1040 -c 1 -i 40 -a 1 -x {0.0 3.0 25 ------- null}
d -t 0.724196 -s 1 -d 5 -p tcp -e 1040 -c 1 -i 40 -a 1 -x {0.0 3.0 25 ------- null}
r -t 0.724452 -s 5 -d 3 -p tcp -e 1040 -c 1 -i 31 -a 1 -x {0.0 3.0 16 ------- null}
h -t 0.724452 -s 3 -d 5 -p ack -e 40 -c 1 -i 47 -a 1 -x {3.0 0.0 16 ------- null}
- -t 0.728608 -s 0 -d 5 -p tcp -e 1040 -c 1 -i 41 -a 1 -x {0.0 3.0 26 ------- null}
h -t 0.728608 -s 0 -d 5 -p tcp -e 1040 -c 1 -i 41 -a 1 -x {0.0 3.0 -1 ------- null}
d -t 0.728612 -s 4 -d 5 -p tcp -e 1040 -c 1 -i 41 -a 1 -x {0.0 3.0 26 ------- null}
d -t 0.728612 -s 2 -d 5 -p tcp -e 1040 -c 1 -i 41 -a 1 -x {0.0 3.0 26 ------- null}
d -t 0.728612 -s 1 -d 5 -p tcp -e 1040 -c 1 -i 41 -a 1 -x {0.0 3.0 26 ------- null}
r -t 0.728868 -s 5 -d 3 -p tcp -e 1040 -c 1 -i 32 -a 1 -x {0.0 3.0 17 ------- null}
h -t 0.728868 -s 3 -d 5 -p ack -e 40 -c 1 -i 48 -a 1 -x {3.0 0.0 17 ------- null}
- -t 0.733024 -s 0 -d 5 -p tcp -e 1040 -c 1 -i 42 -a 1 -x {0.0 3.0 27 ------- null}
h -t 0.733024 -s 0 -d 5 -p tcp -e 1040 -c 1 -i 42 -a 1 -x {0.0 3.0 -1 ------- null}
d -t 0.733028 -s 4 -d 5 -p tcp -e 1040 -c 1 -i 42 -a 1 -x {0.0 3.0 27 ------- null}
d -t 0.733028 -s 2 -d 5 -p tcp -e 1040 -c 1 -i 42 -a 1 -x {0.0 3.0 27 ------- null}
d -t 0.733028 -s 1 -d 5 -p tcp -e 1040 -c 1 -i 42 -a 1 -x {0.0 3.0 27 ------- null}
r -t 0.733284 -s 5 -d 3 -p tcp -e 1040 -c 1 -i 33 -a 1 -x {0.0 3.0 18 ------- null}
h -t 0.733284 -s 3 -d 5 -p ack -e 40 -c 1 -i 49 -a 1 -x {3.0 0.0 18 ------- null}
- -t 0.73744 -s 0 -d 5 -p tcp -e 1040 -c 1 -i 43 -a 1 -x {0.0 3.0 28 ------- null}
h -t 0.73744 -s 0 -d 5 -p tcp -e 1040 -c 1 -i 43 -a 1 -x {0.0 3.0 -1 ------- null}
d -t 0.737444 -s 4 -d 5 -p tcp -e 1040 -c 1 -i 43 -a 1 -x {0.0 3.0 28 ------- null}
d -t 0.737444 -s 2 -d 5 -p tcp -e 1040 -c 1 -i 43 -a 1 -x {0.0 3.0 28 ------- null}
d -t 0.737444 -s 1 -d 5 -p tcp -e 1040 -c 1 -i 43 -a 1 -x {0.0 3.0 28 ------- null}
r -t 0.7377 -s 5 -d 3 -p tcp -e 1040 -c 1 -i 34 -a 1 -x {0.0 3.0 19 ------- null}
h -t 0.7377 -s 3 -d 5 -p ack -e 40 -c 1 -i 50 -a 1 -x {3.0 0.0 19 ------- null}
- -t 0.741856 -s 0 -d 5 -p tcp -e 1040 -c 1 -i 44 -a 1 -x {0.0 3.0 29 ------- null}
h -t 0.741856 -s 0 -d 5 -p tcp -e 1040 -c 1 -i 44 -a 1 -x {0.0 3.0 -1 ------- null}
d -t 0.74186 -s 4 -d 5 -p tcp -e 1040 -c 1 -i 44 -a 1 -x {0.0 3.0 29 ------- null}
d -t 0.74186 -s 2 -d 5 -p tcp -e 1040 -c 1 -i 44 -a 1 -x {0.0 3.0 29 ------- null}
d -t 0.74186 -s 1 -d 5 -p tcp -e 1040 -c 1 -i 44 -a 1 -x {0.0 3.0 29 ------- null}