h 0 0 5 tcp 40 ------- 1 0.0 3.0 0 0
+ 0.04 0 5 tcp 40 ------- 1 0.0 3.0 0 0
- 0.04 0 5 tcp 40 ------- 1 0.0 3.0 0 0
d 0.040004 4 5 tcp 40 ------- 1 0.0 3.0 0 0
d 0.040004 2 5 tcp 40 ------- 1 0.0 3.0 0 0
d 0.040004 1 5 tcp 40 ------- 1 0.0 3.0 0 0
r 0.080004 5 3 tcp 40 ------- 1 0.0 3.0 0 0
h 0.080004 3 5 ack 40 ------- 1 3.0 0.0 0 1
+ 0.120004 3 5 ack 40 ------- 1 3.0 0.0 0 1
- 0.120004 3 5 ack 40 ------- 1 3.0 0.0 0 1
d 0.120008 4 5 ack 40 ------- 1 3.0 0.0 0 1
d 0.120008 2 5 ack 40 ------- 1 3.0 0.0 0 1
d 0.120008 1 5 ack 40 ------- 1 3.0 0.0 0 1
r 0.160008 5 0 ack 40 ------- 1 3.0 0.0 0 1
h 0.160008 0 5 tcp 1040 ------- 1 0.0 3.0 1 2
h 0.160008 0 5 tcp 1040 ------- 1 0.0 3.0 2 3
+ 0.200008 0 5 tcp 1040 ------- 1 0.0 3.0 1 2
- 0.200008 0 5 tcp 1040 ------- 1 0.0 3.0 1 2
+ 0.200008 0 5 tcp 1040 ------- 1 0.0 3.0 2 3
d 0.200012 4 5 tcp 1040 ------- 1 0.0 3.0 1 2
d 0.200012 2 5 tcp 1040 ------- 1 0.0 3.0 1 2
d 0.200012 1 5 tcp 1040 ------- 1 0.0 3.0 1 2
- 0.204424 0 5 tcp 1040 ------- 1 0.0 3.0 2 3
d 0.204428 4 5 tcp 1040 ------- 1 0.0 3.0 2 3
d 0.204428 2 5 tcp 1040 ------- 1 0.0 3.0 2 3
d 0.204428 1 5 tcp 1040 ------- 1 0.0 3.0 2 3
r 0.240012 5 3 tcp 1040 ------- 1 0.0 3.0 1 2
h 0.240012 3 5 ack 40 ------- 1 3.0 0.0 1 4
r 0.244428 5 3 tcp 1040 ------- 1 0.0 3.0 2 3
h 0.244428 3 5 ack 40 ------- 1 3.0 0.0 2 5
+ 0.280012 3 5 ack 40 ------- 1 3.0 0.0 1 4
- 0.280012 3 5 ack 40 ------- 1 3.0 0.0 1 4
d 0.280016 4 5 ack 40 ------- 1 3.0 0.0 1 4
d 0.280016 2 5 ack 40 ------- 1 3.0 0.0 1 4
d 0.280016 1 5 ack 40 ------- 1 3.0 0.0 1 4
+ 0.284428 3 5 ack 40 ------- 1 3.0 0.0 2 5
- 0.284428 3 5 ack 40 ------- 1 3.0 0.0 2 5
d 0.284432 4 5 ack 40 ------- 1 3.0 0.0 2 5
d 0.284432 2 5 ack 40 ------- 1 3.0 0.0 2 5
d 0.284432 1 5 ack 40 ------- 1 3.0 0.0 2 5
r 0.320016 5 0 ack 40 ------- 1 3.0 0.0 1 4
h 0.320016 0 5 tcp 1040 ------- 1 0.0 3.0 3 6
h 0.320016 0 5 tcp 1040 ------- 1 0.0 3.0 4 7
r 0.324432 5 0 ack 40 ------- 1 3.0 0.0 2 5
h 0.324432 0 5 tcp 1040 ------- 1 0.0 3.0 5 8
h 0.324432 0 5 tcp 1040 ------- 1 0.0 3.0 6 9
+ 0.360016 0 5 tcp 1040 ------- 1 0.0 3.0 3 6
- 0.360016 0 5 tcp 1040 ------- 1 0.0 3.0 3 6
+ 0.360016 0 5 tcp 1040 ------- 1 0.0 3.0 4 7
d 0.36002 4 5 tcp 1040 ------- 1 0.0 3.0 3 6
d 0.36002 2 5 tcp 1040 ------- 1 0.0 3.0 3 6
d 0.36002 1 5 tcp 1040 ------- 1 0.0 3.0 3 6
+ 0.364432 0 5 tcp 1040 ------- 1 0.0 3.0 5 8
+ 0.364432 0 5 tcp 1040 ------- 1 0.0 3.0 6 9
- 0.364432 0 5 tcp 1040 ------- 1 0.0 3.0 4 7
d 0.364436 4 5 tcp 1040 ------- 1 0.0 3.0 4 7
d 0.364436 2 5 tcp 1040 ------- 1 0.0 3.0 4 7
d 0.364436 1 5 tcp 1040 ------- 1 0.0 3.0 4 7
- 0.368848 0 5 tcp 1040 ------- 1 0.0 3.0 5 8
d 0.368852 4 5 tcp 1040 ------- 1 0.0 3.0 5 8
d 0.368852 2 5 tcp 1040 ------- 1 0.0 3.0 5 8
d 0.368852 1 5 tcp 1040 ------- 1 0.0 3.0 5 8
- 0.373264 0 5 tcp 1040 ------- 1 0.0 3.0 6 9
d 0.373268 4 5 tcp 1040 ------- 1 0.0 3.0 6 9
d 0.373268 2 5 tcp 1040 ------- 1 0.0 3.0 6 9
d 0.373268 1 5 tcp 1040 ------- 1 0.0 3.0 6 9
r 0.40002 5 3 tcp 1040 ------- 1 0.0 3.0 3 6
h 0.40002 3 5 ack 40 ------- 1 3.0 0.0 3 10
r 0.404436 5 3 tcp 1040 ------- 1 0.0 3.0 4 7
h 0.404436 3 5 ack 40 ------- 1 3.0 0.0 4 11
r 0.408852 5 3 tcp 1040 ------- 1 0.0 3.0 5 8
h 0.408852 3 5 ack 40 ------- 1 3.0 0.0 5 12
r 0.413268 5 3 tcp 1040 ------- 1 0.0 3.0 6 9
h 0.413268 3 5 ack 40 ------- 1 3.0 0.0 6 13
+ 0.44002 3 5 ack 40 ------- 1 3.0 0.0 3 10
- 0.44002 3 5 ack 40 ------- 1 3.0 0.0 3 10
d 0.440024 4 5 ack 40 ------- 1 3.0 0.0 3 10
d 0.440024 2 5 ack 40 ------- 1 3.0 0.0 3 10
d 0.440024 1 5 ack 40 ------- 1 3.0 0.0 3 10
+ 0.444436 3 5 ack 40 ------- 1 3.0 0.0 4 11
- 0.444436 3 5 ack 40 ------- 1 3.0 0.0 4 11
d 0.44444 4 5 ack 40 ------- 1 3.0 0.0 4 11
d 0.44444 2 5 ack 40 ------- 1 3.0 0.0 4 11
d 0.44444 1 5 ack 40 ------- 1 3.0 0.0 4 11
+ 0.448852 3 5 ack 40 ------- 1 3.0 0.0 5 12
- 0.448852 3 5 ack 40 ------- 1 3.0 0.0 5 12
d 0.448856 4 5 ack 40 ------- 1 3.0 0.0 5 12
d 0.448856 2 5 ack 40 ------- 1 3.0 0.0 5 12
d 0.448856 1 5 ack 40 ------- 1 3.0 0.0 5 12
+ 0.453268 3 5 ack 40 ------- 1 3.0 0.0 6 13
- 0.453268 3 5 ack 40 ------- 1 3.0 0.0 6 13
d 0.453272 4 5 ack 40 ------- 1 3.0 0.0 6 13
d 0.453272 2 5 ack 40 ------- 1 3.0 0.0 6 13
d 0.453272 1 5 ack 40 ------- 1 3.0 0.0 6 13
r 0.480024 5 0 ack 40 ------- 1 3.0 0.0 3 10
h 0.480024 0 5 tcp 1040 ------- 1 0.0 3.0 7 14
h 0.480024 0 5 tcp 1040 ------- 1 0.0 3.0 8 15
r 0.48444 5 0 ack 40 ------- 1 3.0 0.0 4 11
h 0.48444 0 5 tcp 1040 ------- 1 0.0 3.0 9 16
h 0.48444 0 5 tcp 1040 ------- 1 0.0 3.0 10 17
r 0.488856 5 0 ack 40 ------- 1 3.0 0.0 5 12
h 0.488856 0 5 tcp 1040 ------- 1 0.0 3.0 11 18
h 0.488856 0 5 tcp 1040 ------- 1 0.0 3.0 12 19
r 0.493272 5 0 ack 40 ------- 1 3.0 0.0 6 13
h 0.493272 0 5 tcp 1040 ------- 1 0.0 3.0 13 20
h 0.493272 0 5 tcp 1040 ------- 1 0.0 3.0 14 21
+ 0.520024 0 5 tcp 1040 ------- 1 0.0 3.0 7 14
- 0.520024 0 5 tcp 1040 ------- 1 0.0 3.0 7 14
+ 0.520024 0 5 tcp 1040 ------- 1 0.0 3.0 8 15
d 0.520028 4 5 tcp 1040 ------- 1 0.0 3.0 7 14
d 0.520028 2 5 tcp 1040 ------- 1 0.0 3.0 7 14
d 0.520028 1 5 tcp 1040 ------- 1 0.0 3.0 7 14
+ 0.52444 0 5 tcp 1040 ------- 1 0.0 3.0 9 16
+ 0.52444 0 5 tcp 1040 ------- 1 0.0 3.0 10 17
- 0.52444 0 5 tcp 1040 ------- 1 0.0 3.0 8 15
d 0.524444 4 5 tcp 1040 ------- 1 0.0 3.0 8 15
d 0.524444 2 5 tcp 1040 ------- 1 0.0 3.0 8 15
d 0.524444 1 5 tcp 1040 ------- 1 0.0 3.0 8 15
+ 0.528856 0 5 tcp 1040 ------- 1 0.0 3.0 11 18
+ 0.528856 0 5 tcp 1040 ------- 1 0.0 3.0 12 19
- 0.528856 0 5 tcp 1040 ------- 1 0.0 3.0 9 16
d 0.52886 4 5 tcp 1040 ------- 1 0.0 3.0 9 16
d 0.52886 2 5 tcp 1040 ------- 1 0.0 3.0 9 16
d 0.52886 1 5 tcp 1040 ------- 1 0.0 3.0 9 16
+ 0.533272 0 5 tcp 1040 ------- 1 0.0 3.0 13 20
+ 0.533272 0 5 tcp 1040 ------- 1 0.0 3.0 14 21
- 0.533272 0 5 tcp 1040 ------- 1 0.0 3.0 10 17
d 0.533276 4 5 tcp 1040 ------- 1 0.0 3.0 10 17
d 0.533276 2 5 tcp 1040 ------- 1 0.0 3.0 10 17
d 0.533276 1 5 tcp 1040 ------- 1 0.0 3.0 10 17
- 0.537688 0 5 tcp 1040 ------- 1 0.0 3.0 11 18
d 0.537692 4 5 tcp 1040 ------- 1 0.0 3.0 11 18
d 0.537692 2 5 tcp 1040 ------- 1 0.0 3.0 11 18
d 0.537692 1 5 tcp 1040 ------- 1 0.0 3.0 11 18
- 0.542104 0 5 tcp 1040 ------- 1 0.0 3.0 12 19
d 0.542108 4 5 tcp 1040 ------- 1 0.0 3.0 12 19
d 0.542108 2 5 tcp 1040 ------- 1 0.0 3.0 12 19
d 0.542108 1 5 tcp 1040 ------- 1 0.0 3.0 12 19
- 0.54652 0 5 tcp 1040 ------- 1 0.0 3.0 13 20
d 0.546524 4 5 tcp 1040 ------- 1 0.0 3.0 13 20
d 0.546524 2 5 tcp 1040 ------- 1 0.0 3.0 13 20
d 0.546524 1 5 tcp 1040 ------- 1 0.0 3.0 13 20
- 0.550936 0 5 tcp 1040 ------- 1 0.0 3.0 14 21
d 0.55094 4 5 tcp 1040 ------- 1 0.0 3.0 14 21
d 0.55094 2 5 tcp 1040 ------- 1 0.0 3.0 14 21
d 0.55094 1 5 tcp 1040 ------- 1 0.0 3.0 14 21
r 0.560028 5 3 tcp 1040 ------- 1 0.0 3.0 7 14
h 0.560028 3 5 ack 40 ------- 1 3.0 0.0 7 22
r 0.564444 5 3 tcp 1040 ------- 1 0.0 3.0 8 15
h 0.564444 3 5 ack 40 ------- 1 3.0 0.0 8 23
r 0.56886 5 3 tcp 1040 ------- 1 0.0 3.0 9 16
h 0.56886 3 5 ack 40 ------- 1 3.0 0.0 9 24
r 0.573276 5 3 tcp 1040 ------- 1 0.0 3.0 10 17
h 0.573276 3 5 ack 40 ------- 1 3.0 0.0 10 25
r 0.577692 5 3 tcp 1040 ------- 1 0.0 3.0 11 18
h 0.577692 3 5 ack 40 ------- 1 3.0 0.0 11 26
r 0.582108 5 3 tcp 1040 ------- 1 0.0 3.0 12 19
h 0.582108 3 5 ack 40 ------- 1 3.0 0.0 12 27
r 0.586524 5 3 tcp 1040 ------- 1 0.0 3.0 13 20
h 0.586524 3 5 ack 40 ------- 1 3.0 0.0 13 28
r 0.59094 5 3 tcp 1040 ------- 1 0.0 3.0 14 21
h 0.59094 3 5 ack 40 ------- 1 3.0 0.0 14 29
+ 0.600028 3 5 ack 40 ------- 1 3.0 0.0 7 22
- 0.600028 3 5 ack 40 ------- 1 3.0 0.0 7 22
d 0.600032 4 5 ack 40 ------- 1 3.0 0.0 7 22
d 0.600032 2 5 ack 40 ------- 1 3.0 0.0 7 22
d 0.600032 1 5 ack 40 ------- 1 3.0 0.0 7 22
+ 0.604444 3 5 ack 40 ------- 1 3.0 0.0 8 23
- 0.604444 3 5 ack 40 ------- 1 3.0 0.0 8 23
d 0.604448 4 5 ack 40 ------- 1 3.0 0.0 8 23
d 0.604448 2 5 ack 40 ------- 1 3.0 0.0 8 23
d 0.604448 1 5 ack 40 ------- 1 3.0 0.0 8 23
+ 0.60886 3 5 ack 40 ------- 1 3.0 0.0 9 24
- 0.60886 3 5 ack 40 ------- 1 3.0 0.0 9 24
d 0.608864 4 5 ack 40 ------- 1 3.0 0.0 9 24
d 0.608864 2 5 ack 40 ------- 1 3.0 0.0 9 24
d 0.608864 1 5 ack 40 ------- 1 3.0 0.0 9 24
+ 0.613276 3 5 ack 40 ------- 1 3.0 0.0 10 25
- 0.613276 3 5 ack 40 ------- 1 3.0 0.0 10 25
d 0.61328 4 5 ack 40 ------- 1 3.0 0.0 10 25
d 0.61328 2 5 ack 40 ------- 1 3.0 0.0 10 25
d 0.61328 1 5 ack 40 ------- 1 3.0 0.0 10 25
+ 0.617692 3 5 ack 40 ------- 1 3.0 0.0 11 26
- 0.617692 3 5 ack 40 ------- 1 3.0 0.0 11 26
d 0.617696 4 5 ack 40 ------- 1 3.0 0.0 11 26
d 0.617696 2 5 ack 40 ------- 1 3.0 0.0 11 26
d 0.617696 1 5 ack 40 ------- 1 3.0 0.0 11 26
+ 0.622108 3 5 ack 40 ------- 1 3.0 0.0 12 27
- 0.622108 3 5 ack 40 ------- 1 3.0 0.0 12 27
d 0.622112 4 5 ack 40 ------- 1 3.0 0.0 12 27
d 0.622112 2 5 ack 40 ------- 1 3.0 0.0 12 27
d 0.622112 1 5 ack 40 ------- 1 3.0 0.0 12 27
+ 0.626524 3 5 ack 40 ------- 1 3.0 0.0 13 28
- 0.626524 3 5 ack 40 ------- 1 3.0 0.0 13 28
d 0.626528 4 5 ack 40 ------- 1 3.0 0.0 13 28
d 0.626528 2 5 ack 40 ------- 1 3.0 0.0 13 28
d 0.626528 1 5 ack 40 ------- 1 3.0 0.0 13 28
+ 0.63094 3 5 ack 40 ------- 1 3.0 0.0 14 29
- 0.63094 3 5 ack 40 ------- 1 3.0 0.0 14 29
d 0.630944 4 5 ack 40 ------- 1 3.0 0.0 14 29
d 0.630944 2 5 ack 40 ------- 1 3.0 0.0 14 29
d 0.630944 1 5 ack 40 ------- 1 3.0 0.0 14 29
r 0.640032 5 0 ack 40 ------- 1 3.0 0.0 7 22
h 0.640032 0 5 tcp 1040 ------- 1 0.0 3.0 15 30
h 0.640032 0 5 tcp 1040 ------- 1 0.0 3.0 16 31
r 0.644448 5 0 ack 40 ------- 1 3.0 0.0 8 23
h 0.644448 0 5 tcp 1040 ------- 1 0.0 3.0 17 32
h 0.644448 0 5 tcp 1040 ------- 1 0.0 3.0 18 33
r 0.648864 5 0 ack 40 ------- 1 3.0 0.0 9 24
h 0.648864 0 5 tcp 1040 ------- 1 0.0 3.0 19 34
h 0.648864 0 5 tcp 1040 ------- 1 0.0 3.0 20 35
r 0.65328 5 0 ack 40 ------- 1 3.0 0.0 10 25
h 0.65328 0 5 tcp 1040 ------- 1 0.0 3.0 21 36
h 0.65328 0 5 tcp 1040 ------- 1 0.0 3.0 22 37
r 0.657696 5 0 ack 40 ------- 1 3.0 0.0 11 26
h 0.657696 0 5 tcp 1040 ------- 1 0.0 3.0 23 38
h 0.657696 0 5 tcp 1040 ------- 1 0.0 3.0 24 39
r 0.662112 5 0 ack 40 ------- 1 3.0 0.0 12 27
h 0.662112 0 5 tcp 1040 ------- 1 0.0 3.0 25 40
h 0.662112 0 5 tcp 1040 ------- 1 0.0 3.0 26 41
r 0.666528 5 0 ack 40 ------- 1 3.0 0.0 13 28
h 0.666528 0 5 tcp 1040 ------- 1 0.0 3.0 27 42
h 0.666528 0 5 tcp 1040 ------- 1 0.0 3.0 28 43
r 0.670944 5 0 ack 40 ------- 1 3.0 0.0 14 29
h 0.670944 0 5 tcp 1040 ------- 1 0.0 3.0 29 44
h 0.670944 0 5 tcp 1040 ------- 1 0.0 3.0 30 45
+ 0.680032 0 5 tcp 1040 ------- 1 0.0 3.0 15 30
- 0.680032 0 5 tcp 1040 ------- 1 0.0 3.0 15 30
+ 0.680032 0 5 tcp 1040 ------- 1 0.0 3.0 16 31
d 0.680036 4 5 tcp 1040 ------- 1 0.0 3.0 15 30
d 0.680036 2 5 tcp 1040 ------- 1 0.0 3.0 15 30
d 0.680036 1 5 tcp 1040 ------- 1 0.0 3.0 15 30
+ 0.684448 0 5 tcp 1040 ------- 1 0.0 3.0 17 32
+ 0.684448 0 5 tcp 1040 ------- 1 0.0 3.0 18 33
- 0.684448 0 5 tcp 1040 ------- 1 0.0 3.0 16 31
d 0.684452 4 5 tcp 1040 ------- 1 0.0 3.0 16 31
d 0.684452 2 5 tcp 1040 ------- 1 0.0 3.0 16 31
d 0.684452 1 5 tcp 1040 ------- 1 0.0 3.0 16 31
+ 0.688864 0 5 tcp 1040 ------- 1 0.0 3.0 19 34
+ 0.688864 0 5 tcp 1040 ------- 1 0.0 3.0 20 35
- 0.688864 0 5 tcp 1040 ------- 1 0.0 3.0 17 32
d 0.688868 4 5 tcp 1040 ------- 1 0.0 3.0 17 32
d 0.688868 2 5 tcp 1040 ------- 1 0.0 3.0 17 32
d 0.688868 1 5 tcp 1040 ------- 1 0.0 3.0 17 32
+ 0.69328 0 5 tcp 1040 ------- 1 0.0 3.0 21 36
+ 0.69328 0 5 tcp 1040 ------- 1 0.0 3.0 22 37
- 0.69328 0 5 tcp 1040 ------- 1 0.0 3.0 18 33
d 0.693284 4 5 tcp 1040 ------- 1 0.0 3.0 18 33
d 0.693284 2 5 tcp 1040 ------- 1 0.0 3.0 18 33
d 0.693284 1 5 tcp 1040 ------- 1 0.0 3.0 18 33
+ 0.697696 0 5 tcp 1040 ------- 1 0.0 3.0 23 38
+ 0.697696 0 5 tcp 1040 ------- 1 0.0 3.0 24 39
- 0.697696 0 5 tcp 1040 ------- 1 0.0 3.0 19 34
d 0.6977 4 5 tcp 1040 ------- 1 0.0 3.0 19 34
d 0.6977 2 5 tcp 1040 ------- 1 0.0 3.0 19 34
d 0.6977 1 5 tcp 1040 ------- 1 0.0 3.0 19 34
+ 0.702112 0 5 tcp 1040 ------- 1 0.0 3.0 25 40
+ 0.702112 0 5 tcp 1040 ------- 1 0.0 3.0 26 41
- 0.702112 0 5 tcp 1040 ------- 1 0.0 3.0 20 35
d 0.702116 4 5 tcp 1040 ------- 1 0.0 3.0 20 35
d 0.702116 2 5 tcp 1040 ------- 1 0.0 3.0 20 35
d 0.702116 1 5 tcp 1040 ------- 1 0.0 3.0 20 35
+ 0.706528 0 5 tcp 1040 ------- 1 0.0 3.0 27 42
+ 0.706528 0 5 tcp 1040 ------- 1 0.0 3.0 28 43
- 0.706528 0 5 tcp 1040 ------- 1 0.0 3.0 21 36
d 0.706532 4 5 tcp 1040 ------- 1 0.0 3.0 21 36
d 0.706532 2 5 tcp 1040 ------- 1 0.0 3.0 21 36
d 0.706532 1 5 tcp 1040 ------- 1 0.0 3.0 21 36
+ 0.710944 0 5 tcp 1040 ------- 1 0.0 3.0 29 44
+ 0.710944 0 5 tcp 1040 ------- 1 0.0 3.0 30 45
- 0.710944 0 5 tcp 1040 ------- 1 0.0 3.0 22 37
d 0.710948 4 5 tcp 1040 ------- 1 0.0 3.0 22 37
d 0.710948 2 5 tcp 1040 ------- 1 0.0 3.0 22 37
d 0.710948 1 5 tcp 1040 ------- 1 0.0 3.0 22 37
- 0.71536 0 5 tcp 1040 ------- 1 0.0 3.0 23 38
d 0.715364 4 5 tcp 1040 ------- 1 0.0 3.0 23 38
d 0.715364 2 5 tcp 1040 ------- 1 0.0 3.0 23 38
d 0.715364 1 5 tcp 1040 ------- 1 0.0 3.0 23 38
- 0.719776 0 5 tcp 1040 ------- 1 0.0 3.0 24 39
d 0.71978 4 5 tcp 1040 ------- 1 0.0 3.0 24 39
d 0.71978 2 5 tcp 1040 ------- 1 0.0 3.0 24 39
d 0.71978 1 5 tcp 1040 ------- 1 0.0 3.0 24 39
r 0.720036 5 3 tcp 1040 ------- 1 0.0 3.0 15 30
h 0.720036 3 5 ack 40 ------- 1 3.0 0.0 15 46
- 0.724192 0 5 tcp 1040 ------- 1 0.0 3.0 25 40
d 0.724196 4 5 tcp 1040 ------- 1 0.0 3.0 25 40
d 0.724196 2 5 tcp 1040 ------- 1 0.0 3.0 25 40
d 0.724196 1 5 tcp 1040 ------- 1 0.0 3.0 25 40
r 0.724452 5 3 tcp 1040 ------- 1 0.0 3.0 16 31
h 0.724452 3 5 ack 40 ------- 1 3.0 0.0 16 47
- 0.728608 0 5 tcp 1040 ------- 1 0.0 3.0 26 41
d 0.728612 4 5 tcp 1040 ------- 1 0.0 3.0 26 41
d 0.728612 2 5 tcp 1040 ------- 1 0.0 3.0 26 41
d 0.728612 1 5 tcp 1040 ------- 1 0.0 3.0 26 41
r 0.728868 5 3 tcp 1040 ------- 1 0.0 3.0 17 32
h 0.728868 3 5 ack 40 ------- 1 3.0 0.0 17 48
- 0.733024 0 5 tcp 1040 ------- 1 0.0 3.0 27 42
d 0.733028 4 5 tcp 1040 ------- 1 0.0 3.0 27 42
d 0.733028 2 5 tcp 1040 ------- 1 0.0 3.0 27 42
d 0.733028 1 5 tcp 1040 ------- 1 0.0 3.0 27 42
r 0.733284 5 3 tcp 1040 ------- 1 0.0 3.0 18 33
h 0.733284 3 5 ack 40 ------- 1 3.0 0.0 18 49
- 0.73744 0 5 tcp 1040 ------- 1 0.0 3.0 28 43
d 0.737444 4 5 tcp 1040 ------- 1 0.0 3.0 28 43
d 0.737444 2 5 tcp 1040 ------- 1 0.0 3.0 28 43
d 0.737444 1 5 tcp 1040 ------- 1 0.0 3.0 28 43
r 0.7377 5 3 tcp 1040 ------- 1 0.0 3.0 19 34
h 0.7377 3 5 ack 40 ------- 1 3.0 0.0 19 50
- 0.741856 0 5 tcp 1040 ------- 1 0.0 3.0 29 44
d 0.74186 4 5 tcp 1040 ------- 1 0.0 3.0 29 44
d 0.74186 2 5 tcp 1040 ------- 1 0.0 3.0 29 44
d 0.74186 1 5 tcp 1040 ------- 1 0.0 3.0 29 44
r 0.742116 5 3 tcp 1040 ------- 1 0.0 3.0 20 35
h 0.742116 3 5 ack 40 ------- 1 3.0 0.0 20 51
- 0.746272 0 5 tcp 1040 ------- 1 0.0 3.0 30 45
d 0.746276 4 5 tcp 1040 ------- 1 0.0 3.0 30 45
d 0.746276 2 5 tcp 1040 ------- 1 0.0 3.0 30 45
d 0.746276 1 5 tcp 1040 ------- 1 0.0 3.0 30 45
r 0.746532 5 3 tcp 1040 ------- 1 0.0 3.0 21 36
h 0.746532 3 5 ack 40 ------- 1 3.0 0.0 21 52
r 0.750948 5 3 tcp 1040 ------- 1 0.0 3.0 22 37
h 0.750948 3 5 ack 40 ------- 1 3.0 0.0 22 53
r 0.755364 5 3 tcp 1040 ------- 1 0.0 3.0 23 38
h 0.755364 3 5 ack 40 ------- 1 3.0 0.0 23 54
r 0.75978 5 3 tcp 1040 ------- 1 0.0 3.0 24 39
h 0.75978 3 5 ack 40 ------- 1 3.0 0.0 24 55
+ 0.760036 3 5 ack 40 ------- 1 3.0 0.0 15 46
- 0.760036 3 5 ack 40 ------- 1 3.0 0.0 15 46
d 0.76004 4 5 ack 40 ------- 1 3.0 0.0 15 46
d 0.76004 2 5 ack 40 ------- 1 3.0 0.0 15 46
d 0.76004 1 5 ack 40 ------- 1 3.0 0.0 15 46
r 0.764196 5 3 tcp 1040 ------- 1 0.0 3.0 25 40
h 0.764196 3 5 ack 40 ------- 1 3.0 0.0 25 56
+ 0.764452 3 5 ack 40 ------- 1 3.0 0.0 16 47
- 0.764452 3 5 ack 40 ------- 1 3.0 0.0 16 47
d 0.764456 4 5 ack 40 ------- 1 3.0 0.0 16 47
d 0.764456 2 5 ack 40 ------- 1 3.0 0.0 16 47
d 0.764456 1 5 ack 40 ------- 1 3.0 0.0 16 47
r 0.768612 5 3 tcp 1040 ------- 1 0.0 3.0 26 41
h 0.768612 3 5 ack 40 ------- 1 3.0 0.0 26 57
+ 0.768868 3 5 ack 40 ------- 1 3.0 0.0 17 48
- 0.768868 3 5 ack 40 ------- 1 3.0 0.0 17 48
d 0.768872 4 5 ack 40 ------- 1 3.0 0.0 17 48
d 0.768872 2 5 ack 40 ------- 1 3.0 0.0 17 48
d 0.768872 1 5 ack 40 ------- 1 3.0 0.0 17 48
r 0.773028 5 3 tcp 1040 ------- 1 0.0 3.0 27 42
h 0.773028 3 5 ack 40 ------- 1 3.0 0.0 27 58
+ 0.773284 3 5 ack 40 ------- 1 3.0 0.0 18 49
- 0.773284 3 5 ack 40 ------- 1 3.0 0.0 18 49
d 0.773288 4 5 ack 40 ------- 1 3.0 0.0 18 49
d 0.773288 2 5 ack 40 ------- 1 3.0 0.0 18 49
d 0.773288 1 5 ack 40 ------- 1 3.0 0.0 18 49
r 0.777444 5 3 tcp 1040 ------- 1 0.0 3.0 28 43
h 0.777444 3 5 ack 40 ------- 1 3.0 0.0 28 59
+ 0.7777 3 5 ack 40 ------- 1 3.0 0.0 19 50
- 0.7777 3 5 ack 40 ------- 1 3.0 0.0 19 50
d 0.777704 4 5 ack 40 ------- 1 3.0 0.0 19 50
d 0.777704 2 5 ack 40 ------- 1 3.0 0.0 19 50
d 0.777704 1 5 ack 40 ------- 1 3.0 0.0 19 50
r 0.78186 5 3 tcp 1040 ------- 1 0.0 3.0 29 44
h 0.78186 3 5 ack 40 ------- 1 3.0 0.0 29 60
+ 0.782116 3 5 ack 40 ------- 1 3.0 0.0 20 51
- 0.782116 3 5 ack 40 ------- 1 3.0 0.0 20 51
d 0.78212 4 5 ack 40 ------- 1 3.0 0.0 20 51
d 0.78212 2 5 ack 40 ------- 1 3.0 0.0 20 51
d 0.78212 1 5 ack 40 ------- 1 3.0 0.0 20 51
r 0.786276 5 3 tcp 1040 ------- 1 0.0 3.0 30 45
h 0.786276 3 5 ack 40 ------- 1 3.0 0.0 30 61
+ 0.786532 3 5 ack 40 ------- 1 3.0 0.0 21 52
- 0.786532 3 5 ack 40 ------- 1 3.0 0.0 21 52
d 0.786536 4 5 ack 40 ------- 1 3.0 0.0 21 52
d 0.786536 2 5 ack 40 ------- 1 3.0 0.0 21 52
d 0.786536 1 5 ack 40 ------- 1 3.0 0.0 21 52
+ 0.790948 3 5 ack 40 ------- 1 3.0 0.0 22 53
- 0.790948 3 5 ack 40 ------- 1 3.0 0.0 22 53
d 0.790952 4 5 ack 40 ------- 1 3.0 0.0 22 53
d 0.790952 2 5 ack 40 ------- 1 3.0 0.0 22 53
d 0.790952 1 5 ack 40 ------- 1 3.0 0.0 22 53
+ 0.795364 3 5 ack 40 ------- 1 3.0 0.0 23 54
- 0.795364 3 5 ack 40 ------- 1 3.0 0.0 23 54
d 0.795368 4 5 ack 40 ------- 1 3.0 0.0 23 54
d 0.795368 2 5 ack 40 ------- 1 3.0 0.0 23 54
d 0.795368 1 5 ack 40 ------- 1 3.0 0.0 23 54
+ 0.79978 3 5 ack 40 ------- 1 3.0 0.0 24 55
- 0.79978 3 5 ack 40 ------- 1 3.0 0.0 24 55
d 0.799784 4 5 ack 40 ------- 1 3.0 0.0 24 55
d 0.799784 2 5 ack 40 ------- 1 3.0 0.0 24 55
d 0.799784 1 5 ack 40 ------- 1 3.0 0.0 24 55
r 0.80004 5 0 ack 40 ------- 1 3.0 0.0 15 46
h 0.80004 0 5 tcp 1040 ------- 1 0.0 3.0 31 62
h 0.80004 0 5 tcp 1040 ------- 1 0.0 3.0 32 63
+ 0.804196 3 5 ack 40 ------- 1 3.0 0.0 25 56
- 0.804196 3 5 ack 40 ------- 1 3.0 0.0 25 56
d 0.8042 4 5 ack 40 ------- 1 3.0 0.0 25 56
d 0.8042 2 5 ack 40 ------- 1 3.0 0.0 25 56
d 0.8042 1 5 ack 40 ------- 1 3.0 0.0 25 56
r 0.804456 5 0 ack 40 ------- 1 3.0 0.0 16 47
h 0.804456 0 5 tcp 1040 ------- 1 0.0 3.0 33 64
h 0.804456 0 5 tcp 1040 ------- 1 0.0 3.0 34 65
+ 0.808612 3 5 ack 40 ------- 1 3.0 0.0 26 57
- 0.808612 3 5 ack 40 ------- 1 3.0 0.0 26 57
d 0.808616 4 5 ack 40 ------- 1 3.0 0.0 26 57
d 0.808616 2 5 ack 40 ------- 1 3.0 0.0 26 57
d 0.808616 1 5 ack 40 ------- 1 3.0 0.0 26 57
r 0.808872 5 0 ack 40 ------- 1 3.0 0.0 17 48
h 0.808872 0 5 tcp 1040 ------- 1 0.0 3.0 35 66
h 0.808872 0 5 tcp 1040 ------- 1 0.0 3.0 36 67
+ 0.813028 3 5 ack 40 ------- 1 3.0 0.0 27 58
- 0.813028 3 5 ack 40 ------- 1 3.0 0.0 27 58
d 0.813032 4 5 ack 40 ------- 1 3.0 0.0 27 58
d 0.813032 2 5 ack 40 ------- 1 3.0 0.0 27 58
d 0.813032 1 5 ack 40 ------- 1 3.0 0.0 27 58
r 0.813288 5 0 ack 40 ------- 1 3.0 0.0 18 49
h 0.813288 0 5 tcp 1040 ------- 1 0.0 3.0 37 68
h 0.813288 0 5 tcp 1040 ------- 1 0.0 3.0 38 69
+ 0.817444 3 5 ack 40 ------- 1 3.0 0.0 28 59
- 0.817444 3 5 ack 40 ------- 1 3.0 0.0 28 59
d 0.817448 4 5 ack 40 ------- 1 3.0 0.0 28 59
d 0.817448 2 5 ack 40 ------- 1 3.0 0.0 28 59
d 0.817448 1 5 ack 40 ------- 1 3.0 0.0 28 59
r 0.817704 5 0 ack 40 ------- 1 3.0 0.0 19 50
h 0.817704 0 5 tcp 1040 ------- 1 0.0 3.0 39 70
+ 0.82186 3 5 ack 40 ------- 1 3.0 0.0 29 60
- 0.82186 3 5 ack 40 ------- 1 3.0 0.0 29 60
d 0.821864 4 5 ack 40 ------- 1 3.0 0.0 29 60
d 0.821864 2 5 ack 40 ------- 1 3.0 0.0 29 60
d 0.821864 1 5 ack 40 ------- 1 3.0 0.0 29 60
r 0.82212 5 0 ack 40 ------- 1 3.0 0.0 20 51
h 0.82212 0 5 tcp 1040 ------- 1 0.0 3.0 40 71
+ 0.826276 3 5 ack 40 ------- 1 3.0 0.0 30 61
- 0.826276 3 5 ack 40 ------- 1 3.0 0.0 30 61
d 0.82628 4 5 ack 40 ------- 1 3.0 0.0 30 61
d 0.82628 2 5 ack 40 ------- 1 3.0 0.0 30 61
d 0.82628 1 5 ack 40 ------- 1 3.0 0.0 30 61
r 0.826536 5 0 ack 40 ------- 1 3.0 0.0 21 52
h 0.826536 0 5 tcp 1040 ------- 1 0.0 3.0 41 72
r 0.830952 5 0 ack 40 ------- 1 3.0 0.0 22 53
h 0.830952 0 5 tcp 1040 ------- 1 0.0 3.0 42 73
r 0.835368 5 0 ack 40 ------- 1 3.0 0.0 23 54
h 0.835368 0 5 tcp 1040 ------- 1 0.0 3.0 43 74
r 0.839784 5 0 ack 40 ------- 1 3.0 0.0 24 55
h 0.839784 0 5 tcp 1040 ------- 1 0.0 3.0 44 75
+ 0.84004 0 5 tcp 1040 ------- 1 0.0 3.0 31 62
- 0.84004 0 5 tcp 1040 ------- 1 0.0 3.0 31 62
+ 0.84004 0 5 tcp 1040 ------- 1 0.0 3.0 32 63
d 0.840044 4 5 tcp 1040 ------- 1 0.0 3.0 31 62
d 0.840044 2 5 tcp 1040 ------- 1 0.0 3.0 31 62
d 0.840044 1 5 tcp 1040 ------- 1 0.0 3.0 31 62
r 0.8442 5 0 ack 40 ------- 1 3.0 0.0 25 56
h 0.8442 0 5 tcp 1040 ------- 1 0.0 3.0 45 76
+ 0.844456 0 5 tcp 1040 ------- 1 0.0 3.0 33 64
+ 0.844456 0 5 tcp 1040 ------- 1 0.0 3.0 34 65
- 0.844456 0 5 tcp 1040 ------- 1 0.0 3.0 32 63
d 0.84446 4 5 tcp 1040 ------- 1 0.0 3.0 32 63
d 0.84446 2 5 tcp 1040 ------- 1 0.0 3.0 32 63
d 0.84446 1 5 tcp 1040 ------- 1 0.0 3.0 32 63
r 0.848616 5 0 ack 40 ------- 1 3.0 0.0 26 57
h 0.848616 0 5 tcp 1040 ------- 1 0.0 3.0 46 77
+ 0.848872 0 5 tcp 1040 ------- 1 0.0 3.0 35 66
+ 0.848872 0 5 tcp 1040 ------- 1 0.0 3.0 36 67
- 0.848872 0 5 tcp 1040 ------- 1 0.0 3.0 33 64
d 0.848876 4 5 tcp 1040 ------- 1 0.0 3.0 33 64
d 0.848876 2 5 tcp 1040 ------- 1 0.0 3.0 33 64
d 0.848876 1 5 tcp 1040 ------- 1 0.0 3.0 33 64
r 0.853032 5 0 ack 40 ------- 1 3.0 0.0 27 58
h 0.853032 0 5 tcp 1040 ------- 1 0.0 3.0 47 78
+ 0.853288 0 5 tcp 1040 ------- 1 0.0 3.0 37 68
+ 0.853288 0 5 tcp 1040 ------- 1 0.0 3.0 38 69
- 0.853288 0 5 tcp 1040 ------- 1 0.0 3.0 34 65
d 0.853292 4 5 tcp 1040 ------- 1 0.0 3.0 34 65
d 0.853292 2 5 tcp 1040 ------- 1 0.0 3.0 34 65
d 0.853292 1 5 tcp 1040 ------- 1 0.0 3.0 34 65
r 0.857448 5 0 ack 40 ------- 1 3.0 0.0 28 59
h 0.857448 0 5 tcp 1040 ------- 1 0.0 3.0 48 79
+ 0.857704 0 5 tcp 1040 ------- 1 0.0 3.0 39 70
- 0.857704 0 5 tcp 1040 ------- 1 0.0 3.0 35 66
d 0.857708 4 5 tcp 1040 ------- 1 0.0 3.0 35 66
d 0.857708 2 5 tcp 1040 ------- 1 0.0 3.0 35 66
d 0.857708 1 5 tcp 1040 ------- 1 0.0 3.0 35 66
r 0.861864 5 0 ack 40 ------- 1 3.0 0.0 29 60
h 0.861864 0 5 tcp 1040 ------- 1 0.0 3.0 49 80
+ 0.86212 0 5 tcp 1040 ------- 1 0.0 3.0 40 71
- 0.86212 0 5 tcp 1040 ------- 1 0.0 3.0 36 67
d 0.862124 4 5 tcp 1040 ------- 1 0.0 3.0 36 67
d 0.862124 2 5 tcp 1040 ------- 1 0.0 3.0 36 67
d 0.862124 1 5 tcp 1040 ------- 1 0.0 3.0 36 67
r 0.86628 5 0 ack 40 ------- 1 3.0 0.0 30 61
h 0.86628 0 5 tcp 1040 ------- 1 0.0 3.0 50 81
+ 0.866536 0 5 tcp 1040 ------- 1 0.0 3.0 41 72
- 0.866536 0 5 tcp 1040 ------- 1 0.0 3.0 37 68
d 0.86654 4 5 tcp 1040 ------- 1 0.0 3.0 37 68
d 0.86654 2 5 tcp 1040 ------- 1 0.0 3.0 37 68
d 0.86654 1 5 tcp 1040 ------- 1 0.0 3.0 37 68
+ 0.870952 0 5 tcp 1040 ------- 1 0.0 3.0 42 73
- 0.870952 0 5 tcp 1040 ------- 1 0.0 3.0 38 69
d 0.870956 4 5 tcp 1040 ------- 1 0.0 3.0 38 69
d 0.870956 2 5 tcp 1040 ------- 1 0.0 3.0 38 69
d 0.870956 1 5 tcp 1040 ------- 1 0.0 3.0 38 69
+ 0.875368 0 5 tcp 1040 ------- 1 0.0 3.0 43 74
- 0.875368 0 5 tcp 1040 ------- 1 0.0 3.0 39 70
d 0.875372 4 5 tcp 1040 ------- 1 0.0 3.0 39 70
d 0.875372 2 5 tcp 1040 ------- 1 0.0 3.0 39 70
d 0.875372 1 5 tcp 1040 ------- 1 0.0 3.0 39 70
+ 0.879784 0 5 tcp 1040 ------- 1 0.0 3.0 44 75
- 0.879784 0 5 tcp 1040 ------- 1 0.0 3.0 40 71
d 0.879788 4 5 tcp 1040 ------- 1 0.0 3.0 40 71
d 0.879788 2 5 tcp 1040 ------- 1 0.0 3.0 40 71
d 0.879788 1 5 tcp 1040 ------- 1 0.0 3.0 40 71
r 0.880044 5 3 tcp 1040 ------- 1 0.0 3.0 31 62
h 0.880044 3 5 ack 40 ------- 1 3.0 0.0 31 82
+ 0.8842 0 5 tcp 1040 ------- 1 0.0 3.0 45 76
- 0.8842 0 5 tcp 1040 ------- 1 0.0 3.0 41 72
d 0.884204 4 5 tcp 1040 ------- 1 0.0 3.0 41 72
d 0.884204 2 5 tcp 1040 ------- 1 0.0 3.0 41 72
d 0.884204 1 5 tcp 1040 ------- 1 0.0 3.0 41 72
r 0.88446 5 3 tcp 1040 ------- 1 0.0 3.0 32 63
h 0.88446 3 5 ack 40 ------- 1 3.0 0.0 32 83
+ 0.888616 0 5 tcp 1040 ------- 1 0.0 3.0 46 77
- 0.888616 0 5 tcp 1040 ------- 1 0.0 3.0 42 73
d 0.88862 4 5 tcp 1040 ------- 1 0.0 3.0 42 73
d 0.88862 2 5 tcp 1040 ------- 1 0.0 3.0 42 73
d 0.88862 1 5 tcp 1040 ------- 1 0.0 3.0 42 73
r 0.888876 5 3 tcp 1040 ------- 1 0.0 3.0 33 64
h 0.888876 3 5 ack 40 ------- 1 3.0 0.0 33 84
+ 0.893032 0 5 tcp 1040 ------- 1 0.0 3.0 47 78
- 0.893032 0 5 tcp 1040 ------- 1 0.0 3.0 43 74
d 0.893036 4 5 tcp 1040 ------- 1 0.0 3.0 43 74
d 0.893036 2 5 tcp 1040 ------- 1 0.0 3.0 43 74
d 0.893036 1 5 tcp 1040 ------- 1 0.0 3.0 43 74
r 0.893292 5 3 tcp 1040 ------- 1 0.0 3.0 34 65
h 0.893292 3 5 ack 40 ------- 1 3.0 0.0 34 85
+ 0.897448 0 5 tcp 1040 ------- 1 0.0 3.0 48 79
- 0.897448 0 5 tcp 1040 ------- 1 0.0 3.0 44 75
d 0.897452 4 5 tcp 1040 ------- 1 0.0 3.0 44 75
d 0.897452 2 5 tcp 1040 ------- 1 0.0 3.0 44 75
d 0.897452 1 5 tcp 1040 ------- 1 0.0 3.0 44 75
r 0.897708 5 3 tcp 1040 ------- 1 0.0 3.0 35 66
h 0.897708 3 5 ack 40 ------- 1 3.0 0.0 35 86
+ 0.901864 0 5 tcp 1040 ------- 1 0.0 3.0 49 80
- 0.901864 0 5 tcp 1040 ------- 1 0.0 3.0 45 76
d 0.901868 4 5 tcp 1040 ------- 1 0.0 3.0 45 76
d 0.901868 2 5 tcp 1040 ------- 1 0.0 3.0 45 76
d 0.901868 1 5 tcp 1040 ------- 1 0.0 3.0 45 76
r 0.902124 5 3 tcp 1040 ------- 1 0.0 3.0 36 67
h 0.902124 3 5 ack 40 ------- 1 3.0 0.0 36 87
+ 0.90628 0 5 tcp 1040 ------- 1 0.0 3.0 50 81
- 0.90628 0 5 tcp 1040 ------- 1 0.0 3.0 46 77
d 0.906284 4 5 tcp 1040 ------- 1 0.0 3.0 46 77
d 0.906284 2 5 tcp 1040 ------- 1 0.0 3.0 46 77
d 0.906284 1 5 tcp 1040 ------- 1 0.0 3.0 46 77
r 0.90654 5 3 tcp 1040 ------- 1 0.0 3.0 37 68
h 0.90654 3 5 ack 40 ------- 1 3.0 0.0 37 88
- 0.910696 0 5 tcp 1040 ------- 1 0.0 3.0 47 78
d 0.9107 4 5 tcp 1040 ------- 1 0.0 3.0 47 78
d 0.9107 2 5 tcp 1040 ------- 1 0.0 3.0 47 78
d 0.9107 1 5 tcp 1040 ------- 1 0.0 3.0 47 78
r 0.910956 5 3 tcp 1040 ------- 1 0.0 3.0 38 69
h 0.910956 3 5 ack 40 ------- 1 3.0 0.0 38 89
- 0.915112 0 5 tcp 1040 ------- 1 0.0 3.0 48 79
d 0.915116 4 5 tcp 1040 ------- 1 0.0 3.0 48 79
d 0.915116 2 5 tcp 1040 ------- 1 0.0 3.0 48 79
d 0.915116 1 5 tcp 1040 ------- 1 0.0 3.0 48 79
r 0.915372 5 3 tcp 1040 ------- 1 0.0 3.0 39 70
h 0.915372 3 5 ack 40 ------- 1 3.0 0.0 39 90
- 0.919528 0 5 tcp 1040 ------- 1 0.0 3.0 49 80
d 0.919532 4 5 tcp 1040 ------- 1 0.0 3.0 49 80
d 0.919532 2 5 tcp 1040 ------- 1 0.0 3.0 49 80
d 0.919532 1 5 tcp 1040 ------- 1 0.0 3.0 49 80
r 0.919788 5 3 tcp 1040 ------- 1 0.0 3.0 40 71
h 0.919788 3 5 ack 40 ------- 1 3.0 0.0 40 91
+ 0.920044 3 5 ack 40 ------- 1 3.0 0.0 31 82
- 0.920044 3 5 ack 40 ------- 1 3.0 0.0 31 82
d 0.920048 4 5 ack 40 ------- 1 3.0 0.0 31 82
d 0.920048 2 5 ack 40 ------- 1 3.0 0.0 31 82
d 0.920048 1 5 ack 40 ------- 1 3.0 0.0 31 82
- 0.923944 0 5 tcp 1040 ------- 1 0.0 3.0 50 81
d 0.923948 4 5 tcp 1040 ------- 1 0.0 3.0 50 81
d 0.923948 2 5 tcp 1040 ------- 1 0.0 3.0 50 81
d 0.923948 1 5 tcp 1040 ------- 1 0.0 3.0 50 81
r 0.924204 5 3 tcp 1040 ------- 1 0.0 3.0 41 72
h 0.924204 3 5 ack 40 ------- 1 3.0 0.0 41 92
+ 0.92446 3 5 ack 40 ------- 1 3.0 0.0 32 83
- 0.92446 3 5 ack 40 ------- 1 3.0 0.0 32 83
d 0.924464 4 5 ack 40 ------- 1 3.0 0.0 32 83
d 0.924464 2 5 ack 40 ------- 1 3.0 0.0 32 83
d 0.924464 1 5 ack 40 ------- 1 3.0 0.0 32 83
r 0.92862 5 3 tcp 1040 ------- 1 0.0 3.0 42 73
h 0.92862 3 5 ack 40 ------- 1 3.0 0.0 42 93
+ 0.928876 3 5 ack 40 ------- 1 3.0 0.0 33 84
- 0.928876 3 5 ack 40 ------- 1 3.0 0.0 33 84
d 0.92888 4 5 ack 40 ------- 1 3.0 0.0 33 84
d 0.92888 2 5 ack 40 ------- 1 3.0 0.0 33 84
d 0.92888 1 5 ack 40 ------- 1 3.0 0.0 33 84
r 0.933036 5 3 tcp 1040 ------- 1 0.0 3.0 43 74
h 0.933036 3 5 ack 40 ------- 1 3.0 0.0 43 94
+ 0.933292 3 5 ack 40 ------- 1 3.0 0.0 34 85
- 0.933292 3 5 ack 40 ------- 1 3.0 0.0 34 85
d 0.933296 4 5 ack 40 ------- 1 3.0 0.0 34 85
d 0.933296 2 5 ack 40 ------- 1 3.0 0.0 34 85
d 0.933296 1 5 ack 40 ------- 1 3.0 0.0 34 85
r 0.937452 5 3 tcp 1040 ------- 1 0.0 3.0 44 75
h 0.937452 3 5 ack 40 ------- 1 3.0 0.0 44 95
+ 0.937708 3 5 ack 40 ------- 1 3.0 0.0 35 86
- 0.937708 3 5 ack 40 ------- 1 3.0 0.0 35 86
d 0.937712 4 5 ack 40 ------- 1 3.0 0.0 35 86
d 0.937712 2 5 ack 40 ------- 1 3.0 0.0 35 86
d 0.937712 1 5 ack 40 ------- 1 3.0 0.0 35 86
r 0.941868 5 3 tcp 1040 ------- 1 0.0 3.0 45 76
h 0.941868 3 5 ack 40 ------- 1 3.0 0.0 45 96
+ 0.942124 3 5 ack 40 ------- 1 3.0 0.0 36 87
- 0.942124 3 5 ack 40 ------- 1 3.0 0.0 36 87
d 0.942128 4 5 ack 40 ------- 1 3.0 0.0 36 87
d 0.942128 2 5 ack 40 ------- 1 3.0 0.0 36 87
d 0.942128 1 5 ack 40 ------- 1 3.0 0.0 36 87
r 0.946284 5 3 tcp 1040 ------- 1 0.0 3.0 46 77
h 0.946284 3 5 ack 40 ------- 1 3.0 0.0 46 97
+ 0.94654 3 5 ack 40 ------- 1 3.0 0.0 37 88
- 0.94654 3 5 ack 40 ------- 1 3.0 0.0 37 88
d 0.946544 4 5 ack 40 ------- 1 3.0 0.0 37 88
d 0.946544 2 5 ack 40 ------- 1 3.0 0.0 37 88
d 0.946544 1 5 ack 40 ------- 1 3.0 0.0 37 88
r 0.9507 5 3 tcp 1040 ------- 1 0.0 3.0 47 78
h 0.9507 3 5 ack 40 ------- 1 3.0 0.0 47 98
+ 0.950956 3 5 ack 40 ------- 1 3.0 0.0 38 89
- 0.950956 3 5 ack 40 ------- 1 3.0 0.0 38 89
d 0.95096 4 5 ack 40 ------- 1 3.0 0.0 38 89
d 0.95096 2 5 ack 40 ------- 1 3.0 0.0 38 89
d 0.95096 1 5 ack 40 ------- 1 3.0 0.0 38 89
r 0.955116 5 3 tcp 1040 ------- 1 0.0 3.0 48 79
h 0.955116 3 5 ack 40 ------- 1 3.0 0.0 48 99
+ 0.955372 3 5 ack 40 ------- 1 3.0 0.0 39 90
- 0.955372 3 5 ack 40 ------- 1 3.0 0.0 39 90
d 0.955376 4 5 ack 40 ------- 1 3.0 0.0 39 90
d 0.955376 2 5 ack 40 ------- 1 3.0 0.0 39 90
d 0.955376 1 5 ack 40 ------- 1 3.0 0.0 39 90
r 0.959532 5 3 tcp 1040 ------- 1 0.0 3.0 49 80
h 0.959532 3 5 ack 40 ------- 1 3.0 0.0 49 100
+ 0.959788 3 5 ack 40 ------- 1 3.0 0.0 40 91
- 0.959788 3 5 ack 40 ------- 1 3.0 0.0 40 91
d 0.959792 4 5 ack 40 ------- 1 3.0 0.0 40 91
d 0.959792 2 5 ack 40 ------- 1 3.0 0.0 40 91
d 0.959792 1 5 ack 40 ------- 1 3.0 0.0 40 91
r 0.960048 5 0 ack 40 ------- 1 3.0 0.0 31 82
h 0.960048 0 5 tcp 1040 ------- 1 0.0 3.0 51 101