V -t * -v 1.0a5 -a 0
A -t * -n 1 -p 0 -o 0x7fffffff -c 30 -a 1
A -t * -h 1 -m 1073741823 -s 0
n -t * -a 4 -s 4 -S UP -v circle -c black -i black
n -t * -a 0 -s 0 -S UP -v circle -c black -i black
n -t * -a 5 -s 5 -S UP -v circle -c black -i black
n -t * -a 1 -s 1 -S UP -v circle -c black -i black
n -t * -a 2 -s 2 -S UP -v circle -c black -i black
n -t * -a 3 -s 3 -S UP -v circle -c black -i black
l -t * -s 0 -d 1 -S UP -r 1000000 -D 0.01 -c black
l -t * -s 1 -d 2 -S UP -r 1000000 -D 0.01 -c black
l -t * -s 2 -d 3 -S UP -r 1000000 -D 0.01 -c black
l -t * -s 3 -d 4 -S UP -r 1000000 -D 0.01 -c black
l -t * -s 4 -d 5 -S UP -r 1000000 -D 0.01 -c black
l -t * -s 5 -d 0 -S UP -r 1000000 -D 0.01 -c black
+ -t 0 -s 0 -d 5 -p tcp -e 40 -c 1 -i 0 -a 1 -x {0.0 5.0 0 ------- null}
- -t 0 -s 0 -d 5 -p tcp -e 40 -c 1 -i 0 -a 1 -x {0.0 5.0 0 ------- null}
h -t 0 -s 0 -d 5 -p tcp -e 40 -c 1 -i 0 -a 1 -x {0.0 5.0 -1 ------- null}
r -t 0.01032 -s 0 -d 5 -p tcp -e 40 -c 1 -i 0 -a 1 -x {0.0 5.0 0 ------- null}
+ -t 0.01032 -s 5 -d 0 -p ack -e 40 -c 1 -i 1 -a 1 -x {5.0 0.0 0 ------- null}
- -t 0.01032 -s 5 -d 0 -p ack -e 40 -c 1 -i 1 -a 1 -x {5.0 0.0 0 ------- null}
h -t 0.01032 -s 5 -d 0 -p ack -e 40 -c 1 -i 1 -a 1 -x {5.0 0.0 -1 ------- null}
r -t 0.02064 -s 5 -d 0 -p ack -e 40 -c 1 -i 1 -a 1 -x {5.0 0.0 0 ------- null}
+ -t 0.02064 -s 0 -d 5 -p tcp -e 1040 -c 1 -i 2 -a 1 -x {0.0 5.0 1 ------- null}
- -t 0.02064 -s 0 -d 5 -p tcp -e 1040 -c 1 -i 2 -a 1 -x {0.0 5.0 1 ------- null}
h -t 0.02064 -s 0 -d 5 -p tcp -e 1040 -c 1 -i 2 -a 1 -x {0.0 5.0 -1 ------- null}
+ -t 0.02064 -s 0 -d 5 -p tcp -e 1040 -c 1 -i 3 -a 1 -x {0.0 5.0 2 ------- null}
- -t 0.02896 -s 0 -d 5 -p tcp -e 1040 -c 1 -i 3 -a 1 -x {0.0 5.0 2 ------- null}
h -t 0.02896 -s 0 -d 5 -p tcp -e 1040 -c 1 -i 3 -a 1 -x {0.0 5.0 -1 ------- null}
r -t 0.03896 -s 0 -d 5 -p tcp -e 1040 -c 1 -i 2 -a 1 -x {0.0 5.0 1 ------- null}
+ -t 0.03896 -s 5 -d 0 -p ack -e 40 -c 1 -i 4 -a 1 -x {5.0 0.0 1 ------- null}
- -t 0.03896 -s 5 -d 0 -p ack -e 40 -c 1 -i 4 -a 1 -x {5.0 0.0 1 ------- null}
h -t 0.03896 -s 5 -d 0 -p ack -e 40 -c 1 -i 4 -a 1 -x {5.0 0.0 -1 ------- null}
r -t 0.04728 -s 0 -d 5 -p tcp -e 1040 -c 1 -i 3 -a 1 -x {0.0 5.0 2 ------- null}
+ -t 0.04728 -s 5 -d 0 -p ack -e 40 -c 1 -i 5 -a 1 -x {5.0 0.0 2 ------- null}
- -t 0.04728 -s 5 -d 0 -p ack -e 40 -c 1 -i 5 -a 1 -x {5.0 0.0 2 ------- null}
h -t 0.04728 -s 5 -d 0 -p ack -e 40 -c 1 -i 5 -a 1 -x {5.0 0.0 -1 ------- null}
r -t 0.04928 -s 5 -d 0 -p ack -e 40 -c 1 -i 4 -a 1 -x {5.0 0.0 1 ------- null}
+ -t 0.04928 -s 0 -d 5 -p tcp -e 1040 -c 1 -i 6 -a 1 -x {0.0 5.0 3 ------- null}
- -t 0.04928 -s 0 -d 5 -p tcp -e 1040 -c 1 -i 6 -a 1 -x {0.0 5.0 3 ------- null}
h -t 0.04928 -s 0 -d 5 -p tcp -e 1040 -c 1 -i 6 -a 1 -x {0.0 5.0 -1 ------- null}
+ -t 0.04928 -s 0 -d 5 -p tcp -e 1040 -c 1 -i 7 -a 1 -x {0.0 5.0 4 ------- null}
r -t 0.0576 -s 5 -d 0 -p ack -e 40 -c 1 -i 5 -a 1 -x {5.0 0.0 2 ------- null}
+ -t 0.0576 -s 0 -d 5 -p tcp -e 1040 -c 1 -i 8 -a 1 -x {0.0 5.0 5 ------- null}
+ -t 0.0576 -s 0 -d 5 -p tcp -e 1040 -c 1 -i 9 -a 1 -x {0.0 5.0 6 ------- null}
- -t 0.0576 -s 0 -d 5 -p tcp -e 1040 -c 1 -i 7 -a 1 -x {0.0 5.0 4 ------- null}
h -t 0.0576 -s 0 -d 5 -p tcp -e 1040 -c 1 -i 7 -a 1 -x {0.0 5.0 -1 ------- null}
- -t 0.06592 -s 0 -d 5 -p tcp -e 1040 -c 1 -i 8 -a 1 -x {0.0 5.0 5 ------- null}
h -t 0.06592 -s 0 -d 5 -p tcp -e 1040 -c 1 -i 8 -a 1 -x {0.0 5.0 -1 ------- null}
r -t 0.0676 -s 0 -d 5 -p tcp -e 1040 -c 1 -i 6 -a 1 -x {0.0 5.0 3 ------- null}
+ -t 0.0676 -s 5 -d 0 -p ack -e 40 -c 1 -i 10 -a 1 -x {5.0 0.0 3 ------- null}
- -t 0.0676 -s 5 -d 0 -p ack -e 40 -c 1 -i 10 -a 1 -x {5.0 0.0 3 ------- null}
h -t 0.0676 -s 5 -d 0 -p ack -e 40 -c 1 -i 10 -a 1 -x {5.0 0.0 -1 ------- null}
- -t 0.07424 -s 0 -d 5 -p tcp -e 1040 -c 1 -i 9 -a 1 -x {0.0 5.0 6 ------- null}
h -t 0.07424 -s 0 -d 5 -p tcp -e 1040 -c 1 -i 9 -a 1 -x {0.0 5.0 -1 ------- null}
r -t 0.07592 -s 0 -d 5 -p tcp -e 1040 -c 1 -i 7 -a 1 -x {0.0 5.0 4 ------- null}
+ -t 0.07592 -s 5 -d 0 -p ack -e 40 -c 1 -i 11 -a 1 -x {5.0 0.0 4 ------- null}
- -t 0.07592 -s 5 -d 0 -p ack -e 40 -c 1 -i 11 -a 1 -x {5.0 0.0 4 ------- null}
h -t 0.07592 -s 5 -d 0 -p ack -e 40 -c 1 -i 11 -a 1 -x {5.0 0.0 -1 ------- null}
r -t 0.07792 -s 5 -d 0 -p ack -e 40 -c 1 -i 10 -a 1 -x {5.0 0.0 3 ------- null}
+ -t 0.07792 -s 0 -d 5 -p tcp -e 1040 -c 1 -i 12 -a 1 -x {0.0 5.0 7 ------- null}
+ -t 0.07792 -s 0 -d 5 -p tcp -e 1040 -c 1 -i 13 -a 1 -x {0.0 5.0 8 ------- null}
- -t 0.08256 -s 0 -d 5 -p tcp -e 1040 -c 1 -i 12 -a 1 -x {0.0 5.0 7 ------- null}
h -t 0.08256 -s 0 -d 5 -p tcp -e 1040 -c 1 -i 12 -a 1 -x {0.0 5.0 -1 ------- null}
r -t 0.08424 -s 0 -d 5 -p tcp -e 1040 -c 1 -i 8 -a 1 -x {0.0 5.0 5 ------- null}
+ -t 0.08424 -s 5 -d 0 -p ack -e 40 -c 1 -i 14 -a 1 -x {5.0 0.0 5 ------- null}
- -t 0.08424 -s 5 -d 0 -p ack -e 40 -c 1 -i 14 -a 1 -x {5.0 0.0 5 ------- null}
h -t 0.08424 -s 5 -d 0 -p ack -e 40 -c 1 -i 14 -a 1 -x {5.0 0.0 -1 ------- null}
r -t 0.08624 -s 5 -d 0 -p ack -e 40 -c 1 -i 11 -a 1 -x {5.0 0.0 4 ------- null}
+ -t 0.08624 -s 0 -d 5 -p tcp -e 1040 -c 1 -i 15 -a 1 -x {0.0 5.0 9 ------- null}
+ -t 0.08624 -s 0 -d 5 -p tcp -e 1040 -c 1 -i 16 -a 1 -x {0.0 5.0 10 ------- null}
- -t 0.09088 -s 0 -d 5 -p tcp -e 1040 -c 1 -i 13 -a 1 -x {0.0 5.0 8 ------- null}
h -t 0.09088 -s 0 -d 5 -p tcp -e 1040 -c 1 -i 13 -a 1 -x {0.0 5.0 -1 ------- null}
r -t 0.09256 -s 0 -d 5 -p tcp -e 1040 -c 1 -i 9 -a 1 -x {0.0 5.0 6 ------- null}
+ -t 0.09256 -s 5 -d 0 -p ack -e 40 -c 1 -i 17 -a 1 -x {5.0 0.0 6 ------- null}
- -t 0.09256 -s 5 -d 0 -p ack -e 40 -c 1 -i 17 -a 1 -x {5.0 0.0 6 ------- null}
h -t 0.09256 -s 5 -d 0 -p ack -e 40 -c 1 -i 17 -a 1 -x {5.0 0.0 -1 ------- null}
r -t 0.09456 -s 5 -d 0 -p ack -e 40 -c 1 -i 14 -a 1 -x {5.0 0.0 5 ------- null}
+ -t 0.09456 -s 0 -d 5 -p tcp -e 1040 -c 1 -i 18 -a 1 -x {0.0 5.0 11 ------- null}
+ -t 0.09456 -s 0 -d 5 -p tcp -e 1040 -c 1 -i 19 -a 1 -x {0.0 5.0 12 ------- null}
- -t 0.0992 -s 0 -d 5 -p tcp -e 1040 -c 1 -i 15 -a 1 -x {0.0 5.0 9 ------- null}
h -t 0.0992 -s 0 -d 5 -p tcp -e 1040 -c 1 -i 15 -a 1 -x {0.0 5.0 -1 ------- null}
r -t 0.10088 -s 0 -d 5 -p tcp -e 1040 -c 1 -i 12 -a 1 -x {0.0 5.0 7 ------- null}
+ -t 0.10088 -s 5 -d 0 -p ack -e 40 -c 1 -i 20 -a 1 -x {5.0 0.0 7 ------- null}
- -t 0.10088 -s 5 -d 0 -p ack -e 40 -c 1 -i 20 -a 1 -x {5.0 0.0 7 ------- null}
h -t 0.10088 -s 5 -d 0 -p ack -e 40 -c 1 -i 20 -a 1 -x {5.0 0.0 -1 ------- null}
r -t 0.10288 -s 5 -d 0 -p ack -e 40 -c 1 -i 17 -a 1 -x {5.0 0.0 6 ------- null}
+ -t 0.10288 -s 0 -d 5 -p tcp -e 1040 -c 1 -i 21 -a 1 -x {0.0 5.0 13 ------- null}
+ -t 0.10288 -s 0 -d 5 -p tcp -e 1040 -c 1 -i 22 -a 1 -x {0.0 5.0 14 ------- null}
- -t 0.10752 -s 0 -d 5 -p tcp -e 1040 -c 1 -i 16 -a 1 -x {0.0 5.0 10 ------- null}
h -t 0.10752 -s 0 -d 5 -p tcp -e 1040 -c 1 -i 16 -a 1 -x {0.0 5.0 -1 ------- null}
r -t 0.1092 -s 0 -d 5 -p tcp -e 1040 -c 1 -i 13 -a 1 -x {0.0 5.0 8 ------- null}
+ -t 0.1092 -s 5 -d 0 -p ack -e 40 -c 1 -i 23 -a 1 -x {5.0 0.0 8 ------- null}
- -t 0.1092 -s 5 -d 0 -p ack -e 40 -c 1 -i 23 -a 1 -x {5.0 0.0 8 ------- null}
h -t 0.1092 -s 5 -d 0 -p ack -e 40 -c 1 -i 23 -a 1 -x {5.0 0.0 -1 ------- null}
r -t 0.1112 -s 5 -d 0 -p ack -e 40 -c 1 -i 20 -a 1 -x {5.0 0.0 7 ------- null}
+ -t 0.1112 -s 0 -d 5 -p tcp -e 1040 -c 1 -i 24 -a 1 -x {0.0 5.0 15 ------- null}
+ -t 0.1112 -s 0 -d 5 -p tcp -e 1040 -c 1 -i 25 -a 1 -x {0.0 5.0 16 ------- null}
- -t 0.11584 -s 0 -d 5 -p tcp -e 1040 -c 1 -i 18 -a 1 -x {0.0 5.0 11 ------- null}
h -t 0.11584 -s 0 -d 5 -p tcp -e 1040 -c 1 -i 18 -a 1 -x {0.0 5.0 -1 ------- null}
r -t 0.11752 -s 0 -d 5 -p tcp -e 1040 -c 1 -i 15 -a 1 -x {0.0 5.0 9 ------- null}
+ -t 0.11752 -s 5 -d 0 -p ack -e 40 -c 1 -i 26 -a 1 -x {5.0 0.0 9 ------- null}
- -t 0.11752 -s 5 -d 0 -p ack -e 40 -c 1 -i 26 -a 1 -x {5.0 0.0 9 ------- null}
h -t 0.11752 -s 5 -d 0 -p ack -e 40 -c 1 -i 26 -a 1 -x {5.0 0.0 -1 ------- null}
r -t 0.11952 -s 5 -d 0 -p ack -e 40 -c 1 -i 23 -a 1 -x {5.0 0.0 8 ------- null}
+ -t 0.11952 -s 0 -d 5 -p tcp -e 1040 -c 1 -i 27 -a 1 -x {0.0 5.0 17 ------- null}
+ -t 0.11952 -s 0 -d 5 -p tcp -e 1040 -c 1 -i 28 -a 1 -x {0.0 5.0 18 ------- null}
- -t 0.12416 -s 0 -d 5 -p tcp -e 1040 -c 1 -i 19 -a 1 -x {0.0 5.0 12 ------- null}
h -t 0.12416 -s 0 -d 5 -p tcp -e 1040 -c 1 -i 19 -a 1 -x {0.0 5.0 -1 ------- null}
r -t 0.12584 -s 0 -d 5 -p tcp -e 1040 -c 1 -i 16 -a 1 -x {0.0 5.0 10 ------- null}
+ -t 0.12584 -s 5 -d 0 -p ack -e 40 -c 1 -i 29 -a 1 -x {5.0 0.0 10 ------- null}
- -t 0.12584 -s 5 -d 0 -p ack -e 40 -c 1 -i 29 -a 1 -x {5.0 0.0 10 ------- null}
h -t 0.12584 -s 5 -d 0 -p ack -e 40 -c 1 -i 29 -a 1 -x {5.0 0.0 -1 ------- null}
r -t 0.12784 -s 5 -d 0 -p ack -e 40 -c 1 -i 26 -a 1 -x {5.0 0.0 9 ------- null}
+ -t 0.12784 -s 0 -d 5 -p tcp -e 1040 -c 1 -i 30 -a 1 -x {0.0 5.0 19 ------- null}
+ -t 0.12784 -s 0 -d 5 -p tcp -e 1040 -c 1 -i 31 -a 1 -x {0.0 5.0 20 ------- null}
- -t 0.13248 -s 0 -d 5 -p tcp -e 1040 -c 1 -i 21 -a 1 -x {0.0 5.0 13 ------- null}
h -t 0.13248 -s 0 -d 5 -p tcp -e 1040 -c 1 -i 21 -a 1 -x {0.0 5.0 -1 ------- null}
r -t 0.13416 -s 0 -d 5 -p tcp -e 1040 -c 1 -i 18 -a 1 -x {0.0 5.0 11 ------- null}
+ -t 0.13416 -s 5 -d 0 -p ack -e 40 -c 1 -i 32 -a 1 -x {5.0 0.0 11 ------- null}
- -t 0.13416 -s 5 -d 0 -p ack -e 40 -c 1 -i 32 -a 1 -x {5.0 0.0 11 ------- null}
h -t 0.13416 -s 5 -d 0 -p ack -e 40 -c 1 -i 32 -a 1 -x {5.0 0.0 -1 ------- null}
r -t 0.13616 -s 5 -d 0 -p ack -e 40 -c 1 -i 29 -a 1 -x {5.0 0.0 10 ------- null}
+ -t 0.13616 -s 0 -d 5 -p tcp -e 1040 -c 1 -i 33 -a 1 -x {0.0 5.0 21 ------- null}
+ -t 0.13616 -s 0 -d 5 -p tcp -e 1040 -c 1 -i 34 -a 1 -x {0.0 5.0 22 ------- null}
- -t 0.1408 -s 0 -d 5 -p tcp -e 1040 -c 1 -i 22 -a 1 -x {0.0 5.0 14 ------- null}
h -t 0.1408 -s 0 -d 5 -p tcp -e 1040 -c 1 -i 22 -a 1 -x {0.0 5.0 -1 ------- null}
r -t 0.14248 -s 0 -d 5 -p tcp -e 1040 -c 1 -i 19 -a 1 -x {0.0 5.0 12 ------- null}
+ -t 0.14248 -s 5 -d 0 -p ack -e 40 -c 1 -i 35 -a 1 -x {5.0 0.0 12 ------- null}
- -t 0.14248 -s 5 -d 0 -p ack -e 40 -c 1 -i 35 -a 1 -x {5.0 0.0 12 ------- null}
h -t 0.14248 -s 5 -d 0 -p ack -e 40 -c 1 -i 35 -a 1 -x {5.0 0.0 -1 ------- null}
r -t 0.14448 -s 5 -d 0 -p ack -e 40 -c 1 -i 32 -a 1 -x {5.0 0.0 11 ------- null}
+ -t 0.14448 -s 0 -d 5 -p tcp -e 1040 -c 1 -i 36 -a 1 -x {0.0 5.0 23 ------- null}
+ -t 0.14448 -s 0 -d 5 -p tcp -e 1040 -c 1 -i 37 -a 1 -x {0.0 5.0 24 ------- null}
- -t 0.14912 -s 0 -d 5 -p tcp -e 1040 -c 1 -i 24 -a 1 -x {0.0 5.0 15 ------- null}
h -t 0.14912 -s 0 -d 5 -p tcp -e 1040 -c 1 -i 24 -a 1 -x {0.0 5.0 -1 ------- null}
r -t 0.1508 -s 0 -d 5 -p tcp -e 1040 -c 1 -i 21 -a 1 -x {0.0 5.0 13 ------- null}
+ -t 0.1508 -s 5 -d 0 -p ack -e 40 -c 1 -i 38 -a 1 -x {5.0 0.0 13 ------- null}
- -t 0.1508 -s 5 -d 0 -p ack -e 40 -c 1 -i 38 -a 1 -x {5.0 0.0 13 ------- null}
h -t 0.1508 -s 5 -d 0 -p ack -e 40 -c 1 -i 38 -a 1 -x {5.0 0.0 -1 ------- null}
r -t 0.1528 -s 5 -d 0 -p ack -e 40 -c 1 -i 35 -a 1 -x {5.0 0.0 12 ------- null}
+ -t 0.1528 -s 0 -d 5 -p tcp -e 1040 -c 1 -i 39 -a 1 -x {0.0 5.0 25 ------- null}
+ -t 0.1528 -s 0 -d 5 -p tcp -e 1040 -c 1 -i 40 -a 1 -x {0.0 5.0 26 ------- null}
- -t 0.15744 -s 0 -d 5 -p tcp -e 1040 -c 1 -i 25 -a 1 -x {0.0 5.0 16 ------- null}
h -t 0.15744 -s 0 -d 5 -p tcp -e 1040 -c 1 -i 25 -a 1 -x {0.0 5.0 -1 ------- null}
r -t 0.15912 -s 0 -d 5 -p tcp -e 1040 -c 1 -i 22 -a 1 -x {0.0 5.0 14 ------- null}
+ -t 0.15912 -s 5 -d 0 -p ack -e 40 -c 1 -i 41 -a 1 -x {5.0 0.0 14 ------- null}
- -t 0.15912 -s 5 -d 0 -p ack -e 40 -c 1 -i 41 -a 1 -x {5.0 0.0 14 ------- null}
h -t 0.15912 -s 5 -d 0 -p ack -e 40 -c 1 -i 41 -a 1 -x {5.0 0.0 -1 ------- null}
r -t 0.16112 -s 5 -d 0 -p ack -e 40 -c 1 -i 38 -a 1 -x {5.0 0.0 13 ------- null}
+ -t 0.16112 -s 0 -d 5 -p tcp -e 1040 -c 1 -i 42 -a 1 -x {0.0 5.0 27 ------- null}
+ -t 0.16112 -s 0 -d 5 -p tcp -e 1040 -c 1 -i 43 -a 1 -x {0.0 5.0 28 ------- null}
- -t 0.16576 -s 0 -d 5 -p tcp -e 1040 -c 1 -i 27 -a 1 -x {0.0 5.0 17 ------- null}
h -t 0.16576 -s 0 -d 5 -p tcp -e 1040 -c 1 -i 27 -a 1 -x {0.0 5.0 -1 ------- null}
r -t 0.16744 -s 0 -d 5 -p tcp -e 1040 -c 1 -i 24 -a 1 -x {0.0 5.0 15 ------- null}
+ -t 0.16744 -s 5 -d 0 -p ack -e 40 -c 1 -i 44 -a 1 -x {5.0 0.0 15 ------- null}
- -t 0.16744 -s 5 -d 0 -p ack -e 40 -c 1 -i 44 -a 1 -x {5.0 0.0 15 ------- null}
h -t 0.16744 -s 5 -d 0 -p ack -e 40 -c 1 -i 44 -a 1 -x {5.0 0.0 -1 ------- null}
r -t 0.16944 -s 5 -d 0 -p ack -e 40 -c 1 -i 41 -a 1 -x {5.0 0.0 14 ------- null}
+ -t 0.16944 -s 0 -d 5 -p tcp -e 1040 -c 1 -i 45 -a 1 -x {0.0 5.0 29 ------- null}
+ -t 0.16944 -s 0 -d 5 -p tcp -e 1040 -c 1 -i 46 -a 1 -x {0.0 5.0 30 ------- null}
- -t 0.17408 -s 0 -d 5 -p tcp -e 1040 -c 1 -i 28 -a 1 -x {0.0 5.0 18 ------- null}
h -t 0.17408 -s 0 -d 5 -p tcp -e 1040 -c 1 -i 28 -a 1 -x {0.0 5.0 -1 ------- null}
r -t 0.17576 -s 0 -d 5 -p tcp -e 1040 -c 1 -i 25 -a 1 -x {0.0 5.0 16 ------- null}
+ -t 0.17576 -s 5 -d 0 -p ack -e 40 -c 1 -i 47 -a 1 -x {5.0 0.0 16 ------- null}
- -t 0.17576 -s 5 -d 0 -p ack -e 40 -c 1 -i 47 -a 1 -x {5.0 0.0 16 ------- null}
h -t 0.17576 -s 5 -d 0 -p ack -e 40 -c 1 -i 47 -a 1 -x {5.0 0.0 -1 ------- null}
r -t 0.17776 -s 5 -d 0 -p ack -e 40 -c 1 -i 44 -a 1 -x {5.0 0.0 15 ------- null}
+ -t 0.17776 -s 0 -d 5 -p tcp -e 1040 -c 1 -i 48 -a 1 -x {0.0 5.0 31 ------- null}
+ -t 0.17776 -s 0 -d 5 -p tcp -e 1040 -c 1 -i 49 -a 1 -x {0.0 5.0 32 ------- null}
- -t 0.1824 -s 0 -d 5 -p tcp -e 1040 -c 1 -i 30 -a 1 -x {0.0 5.0 19 ------- null}
h -t 0.1824 -s 0 -d 5 -p tcp -e 1040 -c 1 -i 30 -a 1 -x {0.0 5.0 -1 ------- null}
r -t 0.18408 -s 0 -d 5 -p tcp -e 1040 -c 1 -i 27 -a 1 -x {0.0 5.0 17 ------- null}
+ -t 0.18408 -s 5 -d 0 -p ack -e 40 -c 1 -i 50 -a 1 -x {5.0 0.0 17 ------- null}
- -t 0.18408 -s 5 -d 0 -p ack -e 40 -c 1 -i 50 -a 1 -x {5.0 0.0 17 ------- null}
h -t 0.18408 -s 5 -d 0 -p ack -e 40 -c 1 -i 50 -a 1 -x {5.0 0.0 -1 ------- null}
r -t 0.18608 -s 5 -d 0 -p ack -e 40 -c 1 -i 47 -a 1 -x {5.0 0.0 16 ------- null}
+ -t 0.18608 -s 0 -d 5 -p tcp -e 1040 -c 1 -i 51 -a 1 -x {0.0 5.0 33 ------- null}
+ -t 0.18608 -s 0 -d 5 -p tcp -e 1040 -c 1 -i 52 -a 1 -x {0.0 5.0 34 ------- null}
- -t 0.19072 -s 0 -d 5 -p tcp -e 1040 -c 1 -i 31 -a 1 -x {0.0 5.0 20 ------- null}
h -t 0.19072 -s 0 -d 5 -p tcp -e 1040 -c 1 -i 31 -a 1 -x {0.0 5.0 -1 ------- null}
r -t 0.1924 -s 0 -d 5 -p tcp -e 1040 -c 1 -i 28 -a 1 -x {0.0 5.0 18 ------- null}
+ -t 0.1924 -s 5 -d 0 -p ack -e 40 -c 1 -i 53 -a 1 -x {5.0 0.0 18 ------- null}
- -t 0.1924 -s 5 -d 0 -p ack -e 40 -c 1 -i 53 -a 1 -x {5.0 0.0 18 ------- null}
h -t 0.1924 -s 5 -d 0 -p ack -e 40 -c 1 -i 53 -a 1 -x {5.0 0.0 -1 ------- null}
r -t 0.1944 -s 5 -d 0 -p ack -e 40 -c 1 -i 50 -a 1 -x {5.0 0.0 17 ------- null}
+ -t 0.1944 -s 0 -d 5 -p tcp -e 1040 -c 1 -i 54 -a 1 -x {0.0 5.0 35 ------- null}
+ -t 0.1944 -s 0 -d 5 -p tcp -e 1040 -c 1 -i 55 -a 1 -x {0.0 5.0 36 ------- null}
- -t 0.19904 -s 0 -d 5 -p tcp -e 1040 -c 1 -i 33 -a 1 -x {0.0 5.0 21 ------- null}
h -t 0.19904 -s 0 -d 5 -p tcp -e 1040 -c 1 -i 33 -a 1 -x {0.0 5.0 -1 ------- null}
r -t 0.20072 -s 0 -d 5 -p tcp -e 1040 -c 1 -i 30 -a 1 -x {0.0 5.0 19 ------- null}
+ -t 0.20072 -s 5 -d 0 -p ack -e 40 -c 1 -i 56 -a 1 -x {5.0 0.0 19 ------- null}
- -t 0.20072 -s 5 -d 0 -p ack -e 40 -c 1 -i 56 -a 1 -x {5.0 0.0 19 ------- null}
h -t 0.20072 -s 5 -d 0 -p ack -e 40 -c 1 -i 56 -a 1 -x {5.0 0.0 -1 ------- null}
r -t 0.20272 -s 5 -d 0 -p ack -e 40 -c 1 -i 53 -a 1 -x {5.0 0.0 18 ------- null}
+ -t 0.20272 -s 0 -d 5 -p tcp -e 1040 -c 1 -i 57 -a 1 -x {0.0 5.0 37 ------- null}
+ -t 0.20272 -s 0 -d 5 -p tcp -e 1040 -c 1 -i 58 -a 1 -x {0.0 5.0 38 ------- null}
- -t 0.20736 -s 0 -d 5 -p tcp -e 1040 -c 1 -i 34 -a 1 -x {0.0 5.0 22 ------- null}
h -t 0.20736 -s 0 -d 5 -p tcp -e 1040 -c 1 -i 34 -a 1 -x {0.0 5.0 -1 ------- null}
r -t 0.20904 -s 0 -d 5 -p tcp -e 1040 -c 1 -i 31 -a 1 -x {0.0 5.0 20 ------- null}
+ -t 0.20904 -s 5 -d 0 -p ack -e 40 -c 1 -i 59 -a 1 -x {5.0 0.0 20 ------- null}
- -t 0.20904 -s 5 -d 0 -p ack -e 40 -c 1 -i 59 -a 1 -x {5.0 0.0 20 ------- null}
h -t 0.20904 -s 5 -d 0 -p ack -e 40 -c 1 -i 59 -a 1 -x {5.0 0.0 -1 ------- null}
r -t 0.21104 -s 5 -d 0 -p ack -e 40 -c 1 -i 56 -a 1 -x {5.0 0.0 19 ------- null}
+ -t 0.21104 -s 0 -d 5 -p tcp -e 1040 -c 1 -i 60 -a 1 -x {0.0 5.0 39 ------- null}
- -t 0.21568 -s 0 -d 5 -p tcp -e 1040 -c 1 -i 36 -a 1 -x {0.0 5.0 23 ------- null}
h -t 0.21568 -s 0 -d 5 -p tcp -e 1040 -c 1 -i 36 -a 1 -x {0.0 5.0 -1 ------- null}
r -t 0.21736 -s 0 -d 5 -p tcp -e 1040 -c 1 -i 33 -a 1 -x {0.0 5.0 21 ------- null}
+ -t 0.21736 -s 5 -d 0 -p ack -e 40 -c 1 -i 61 -a 1 -x {5.0 0.0 21 ------- null}
- -t 0.21736 -s 5 -d 0 -p ack -e 40 -c 1 -i 61 -a 1 -x {5.0 0.0 21 ------- null}
h -t 0.21736 -s 5 -d 0 -p ack -e 40 -c 1 -i 61 -a 1 -x {5.0 0.0 -1 ------- null}
r -t 0.21936 -s 5 -d 0 -p ack -e 40 -c 1 -i 59 -a 1 -x {5.0 0.0 20 ------- null}
+ -t 0.21936 -s 0 -d 5 -p tcp -e 1040 -c 1 -i 62 -a 1 -x {0.0 5.0 40 ------- null}
- -t 0.224 -s 0 -d 5 -p tcp -e 1040 -c 1 -i 37 -a 1 -x {0.0 5.0 24 ------- null}
h -t 0.224 -s 0 -d 5 -p tcp -e 1040 -c 1 -i 37 -a 1 -x {0.0 5.0 -1 ------- null}
r -t 0.22568 -s 0 -d 5 -p tcp -e 1040 -c 1 -i 34 -a 1 -x {0.0 5.0 22 ------- null}
+ -t 0.22568 -s 5 -d 0 -p ack -e 40 -c 1 -i 63 -a 1 -x {5.0 0.0 22 ------- null}
- -t 0.22568 -s 5 -d 0 -p ack -e 40 -c 1 -i 63 -a 1 -x {5.0 0.0 22 ------- null}
h -t 0.22568 -s 5 -d 0 -p ack -e 40 -c 1 -i 63 -a 1 -x {5.0 0.0 -1 ------- null}
r -t 0.22768 -s 5 -d 0 -p ack -e 40 -c 1 -i 61 -a 1 -x {5.0 0.0 21 ------- null}
+ -t 0.22768 -s 0 -d 5 -p tcp -e 1040 -c 1 -i 64 -a 1 -x {0.0 5.0 41 ------- null}
- -t 0.23232 -s 0 -d 5 -p tcp -e 1040 -c 1 -i 39 -a 1 -x {0.0 5.0 25 ------- null}
h -t 0.23232 -s 0 -d 5 -p tcp -e 1040 -c 1 -i 39 -a 1 -x {0.0 5.0 -1 ------- null}
r -t 0.234 -s 0 -d 5 -p tcp -e 1040 -c 1 -i 36 -a 1 -x {0.0 5.0 23 ------- null}
+ -t 0.234 -s 5 -d 0 -p ack -e 40 -c 1 -i 65 -a 1 -x {5.0 0.0 23 ------- null}
- -t 0.234 -s 5 -d 0 -p ack -e 40 -c 1 -i 65 -a 1 -x {5.0 0.0 23 ------- null}
h -t 0.234 -s 5 -d 0 -p ack -e 40 -c 1 -i 65 -a 1 -x {5.0 0.0 -1 ------- null}
r -t 0.236 -s 5 -d 0 -p ack -e 40 -c 1 -i 63 -a 1 -x {5.0 0.0 22 ------- null}
+ -t 0.236 -s 0 -d 5 -p tcp -e 1040 -c 1 -i 66 -a 1 -x {0.0 5.0 42 ------- null}
- -t 0.24064 -s 0 -d 5 -p tcp -e 1040 -c 1 -i 40 -a 1 -x {0.0 5.0 26 ------- null}
h -t 0.24064 -s 0 -d 5 -p tcp -e 1040 -c 1 -i 40 -a 1 -x {0.0 5.0 -1 ------- null}
r -t 0.24232 -s 0 -d 5 -p tcp -e 1040 -c 1 -i 37 -a 1 -x {0.0 5.0 24 ------- null}
+ -t 0.24232 -s 5 -d 0 -p ack -e 40 -c 1 -i 67 -a 1 -x {5.0 0.0 24 ------- null}
- -t 0.24232 -s 5 -d 0 -p ack -e 40 -c 1 -i 67 -a 1 -x {5.0 0.0 24 ------- null}
h -t 0.24232 -s 5 -d 0 -p ack -e 40 -c 1 -i 67 -a 1 -x {5.0 0.0 -1 ------- null}
r -t 0.24432 -s 5 -d 0 -p ack -e 40 -c 1 -i 65 -a 1 -x {5.0 0.0 23 ------- null}
+ -t 0.24432 -s 0 -d 5 -p tcp -e 1040 -c 1 -i 68 -a 1 -x {0.0 5.0 43 ------- null}
- -t 0.24896 -s 0 -d 5 -p tcp -e 1040 -c 1 -i 42 -a 1 -x {0.0 5.0 27 ------- null}
h -t 0.24896 -s 0 -d 5 -p tcp -e 1040 -c 1 -i 42 -a 1 -x {0.0 5.0 -1 ------- null}
r -t 0.25064 -s 0 -d 5 -p tcp -e 1040 -c 1 -i 39 -a 1 -x {0.0 5.0 25 ------- null}
+ -t 0.25064 -s 5 -d 0 -p ack -e 40 -c 1 -i 69 -a 1 -x {5.0 0.0 25 ------- null}
- -t 0.25064 -s 5 -d 0 -p ack -e 40 -c 1 -i 69 -a 1 -x {5.0 0.0 25 ------- null}
h -t 0.25064 -s 5 -d 0 -p ack -e 40 -c 1 -i 69 -a 1 -x {5.0 0.0 -1 ------- null}
r -t 0.25264 -s 5 -d 0 -p ack -e 40 -c 1 -i 67 -a 1 -x {5.0 0.0 24 ------- null}
+ -t 0.25264 -s 0 -d 5 -p tcp -e 1040 -c 1 -i 70 -a 1 -x {0.0 5.0 44 ------- null}
- -t 0.25728 -s 0 -d 5 -p tcp -e 1040 -c 1 -i 43 -a 1 -x {0.0 5.0 28 ------- null}
h -t 0.25728 -s 0 -d 5 -p tcp -e 1040 -c 1 -i 43 -a 1 -x {0.0 5.0 -1 ------- null}
r -t 0.25896 -s 0 -d 5 -p tcp -e 1040 -c 1 -i 40 -a 1 -x {0.0 5.0 26 ------- null}
+ -t 0.25896 -s 5 -d 0 -p ack -e 40 -c 1 -i 71 -a 1 -x {5.0 0.0 26 ------- null}
- -t 0.25896 -s 5 -d 0 -p ack -e 40 -c 1 -i 71 -a 1 -x {5.0 0.0 26 ------- null}
h -t 0.25896 -s 5 -d 0 -p ack -e 40 -c 1 -i 71 -a 1 -x {5.0 0.0 -1 ------- null}
r -t 0.26096 -s 5 -d 0 -p ack -e 40 -c 1 -i 69 -a 1 -x {5.0 0.0 25 ------- null}
+ -t 0.26096 -s 0 -d 5 -p tcp -e 1040 -c 1 -i 72 -a 1 -x {0.0 5.0 45 ------- null}
- -t 0.2656 -s 0 -d 5 -p tcp -e 1040 -c 1 -i 45 -a 1 -x {0.0 5.0 29 ------- null}
h -t 0.2656 -s 0 -d 5 -p tcp -e 1040 -c 1 -i 45 -a 1 -x {0.0 5.0 -1 ------- null}
r -t 0.26728 -s 0 -d 5 -p tcp -e 1040 -c 1 -i 42 -a 1 -x {0.0 5.0 27 ------- null}
+ -t 0.26728 -s 5 -d 0 -p ack -e 40 -c 1 -i 73 -a 1 -x {5.0 0.0 27 ------- null}
- -t 0.26728 -s 5 -d 0 -p ack -e 40 -c 1 -i 73 -a 1 -x {5.0 0.0 27 ------- null}
h -t 0.26728 -s 5 -d 0 -p ack -e 40 -c 1 -i 73 -a 1 -x {5.0 0.0 -1 ------- null}
r -t 0.26928 -s 5 -d 0 -p ack -e 40 -c 1 -i 71 -a 1 -x {5.0 0.0 26 ------- null}
+ -t 0.26928 -s 0 -d 5 -p tcp -e 1040 -c 1 -i 74 -a 1 -x {0.0 5.0 46 ------- null}
- -t 0.27392 -s 0 -d 5 -p tcp -e 1040 -c 1 -i 46 -a 1 -x {0.0 5.0 30 ------- null}
h -t 0.27392 -s 0 -d 5 -p tcp -e 1040 -c 1 -i 46 -a 1 -x {0.0 5.0 -1 ------- null}
r -t 0.2756 -s 0 -d 5 -p tcp -e 1040 -c 1 -i 43 -a 1 -x {0.0 5.0 28 ------- null}
+ -t 0.2756 -s 5 -d 0 -p ack -e 40 -c 1 -i 75 -a 1 -x {5.0 0.0 28 ------- null}
- -t 0.2756 -s 5 -d 0 -p ack -e 40 -c 1 -i 75 -a 1 -x {5.0 0.0 28 ------- null}
h -t 0.2756 -s 5 -d 0 -p ack -e 40 -c 1 -i 75 -a 1 -x {5.0 0.0 -1 ------- null}
r -t 0.2776 -s 5 -d 0 -p ack -e 40 -c 1 -i 73 -a 1 -x {5.0 0.0 27 ------- null}
+ -t 0.2776 -s 0 -d 5 -p tcp -e 1040 -c 1 -i 76 -a 1 -x {0.0 5.0 47 ------- null}
- -t 0.28224 -s 0 -d 5 -p tcp -e 1040 -c 1 -i 48 -a 1 -x {0.0 5.0 31 ------- null}
h -t 0.28224 -s 0 -d 5 -p tcp -e 1040 -c 1 -i 48 -a 1 -x {0.0 5.0 -1 ------- null}
r -t 0.28392 -s 0 -d 5 -p tcp -e 1040 -c 1 -i 45 -a 1 -x {0.0 5.0 29 ------- null}
+ -t 0.28392 -s 5 -d 0 -p ack -e 40 -c 1 -i 77 -a 1 -x {5.0 0.0 29 ------- null}
- -t 0.28392 -s 5 -d 0 -p ack -e 40 -c 1 -i 77 -a 1 -x {5.0 0.0 29 ------- null}
h -t 0.28392 -s 5 -d 0 -p ack -e 40 -c 1 -i 77 -a 1 -x {5.0 0.0 -1 ------- null}
r -t 0.28592 -s 5 -d 0 -p ack -e 40 -c 1 -i 75 -a 1 -x {5.0 0.0 28 ------- null}
+ -t 0.28592 -s 0 -d 5 -p tcp -e 1040 -c 1 -i 78 -a 1 -x {0.0 5.0 48 ------- null}
- -t 0.29056 -s 0 -d 5 -p tcp -e 1040 -c 1 -i 49 -a 1 -x {0.0 5.0 32 ------- null}
h -t 0.29056 -s 0 -d 5 -p tcp -e 1040 -c 1 -i 49 -a 1 -x {0.0 5.0 -1 ------- null}
r -t 0.29224 -s 0 -d 5 -p tcp -e 1040 -c 1 -i 46 -a 1 -x {0.0 5.0 30 ------- null}
+ -t 0.29224 -s 5 -d 0 -p ack -e 40 -c 1 -i 79 -a 1 -x {5.0 0.0 30 ------- null}
- -t 0.29224 -s 5 -d 0 -p ack -e 40 -c 1 -i 79 -a 1 -x {5.0 0.0 30 ------- null}
h -t 0.29224 -s 5 -d 0 -p ack -e 40 -c 1 -i 79 -a 1 -x {5.0 0.0 -1 ------- null}
r -t 0.29424 -s 5 -d 0 -p ack -e 40 -c 1 -i 77 -a 1 -x {5.0 0.0 29 ------- null}
+ -t 0.29424 -s 0 -d 5 -p tcp -e 1040 -c 1 -i 80 -a 1 -x {0.0 5.0 49 ------- null}
- -t 0.29888 -s 0 -d 5 -p tcp -e 1040 -c 1 -i 51 -a 1 -x {0.0 5.0 33 ------- null}
h -t 0.29888 -s 0 -d 5 -p tcp -e 1040 -c 1 -i 51 -a 1 -x {0.0 5.0 -1 ------- null}
r -t 0.30056 -s 0 -d 5 -p tcp -e 1040 -c 1 -i 48 -a 1 -x {0.0 5.0 31 ------- null}
+ -t 0.30056 -s 5 -d 0 -p ack -e 40 -c 1 -i 81 -a 1 -x {5.0 0.0 31 ------- null}
- -t 0.30056 -s 5 -d 0 -p ack -e 40 -c 1 -i 81 -a 1 -x {5.0 0.0 31 ------- null}
h -t 0.30056 -s 5 -d 0 -p ack -e 40 -c 1 -i 81 -a 1 -x {5.0 0.0 -1 ------- null}
r -t 0.30256 -s 5 -d 0 -p ack -e 40 -c 1 -i 79 -a 1 -x {5.0 0.0 30 ------- null}
+ -t 0.30256 -s 0 -d 5 -p tcp -e 1040 -c 1 -i 82 -a 1 -x {0.0 5.0 50 ------- null}
- -t 0.3072 -s 0 -d 5 -p tcp -e 1040 -c 1 -i 52 -a 1 -x {0.0 5.0 34 ------- null}
h -t 0.3072 -s 0 -d 5 -p tcp -e 1040 -c 1 -i 52 -a 1 -x {0.0 5.0 -1 ------- null}
r -t 0.30888 -s 0 -d 5 -p tcp -e 1040 -c 1 -i 49 -a 1 -x {0.0 5.0 32 ------- null}
+ -t 0.30888 -s 5 -d 0 -p ack -e 40 -c 1 -i 83 -a 1 -x {5.0 0.0 32 ------- null}
- -t 0.30888 -s 5 -d 0 -p ack -e 40 -c 1 -i 83 -a 1 -x {5.0 0.0 32 ------- null}
h -t 0.30888 -s 5 -d 0 -p ack -e 40 -c 1 -i 83 -a 1 -x {5.0 0.0 -1 ------- null}
r -t 0.31088 -s 5 -d 0 -p ack -e 40 -c 1 -i 81 -a 1 -x {5.0 0.0 31 ------- null}
+ -t 0.31088 -s 0 -d 5 -p tcp -e 1040 -c 1 -i 84 -a 1 -x {0.0 5.0 51 ------- null}
- -t 0.31552 -s 0 -d 5 -p tcp -e 1040 -c 1 -i 54 -a 1 -x {0.0 5.0 35 ------- null}
h -t 0.31552 -s 0 -d 5 -p tcp -e 1040 -c 1 -i 54 -a 1 -x {0.0 5.0 -1 ------- null}
r -t 0.3172 -s 0 -d 5 -p tcp -e 1040 -c 1 -i 51 -a 1 -x {0.0 5.0 33 ------- null}
+ -t 0.3172 -s 5 -d 0 -p ack -e 40 -c 1 -i 85 -a 1 -x {5.0 0.0 33 ------- null}
- -t 0.3172 -s 5 -d 0 -p ack -e 40 -c 1 -i 85 -a 1 -x {5.0 0.0 33 ------- null}
h -t 0.3172 -s 5 -d 0 -p ack -e 40 -c 1 -i 85 -a 1 -x {5.0 0.0 -1 ------- null}
r -t 0.3192 -s 5 -d 0 -p ack -e 40 -c 1 -i 83 -a 1 -x {5.0 0.0 32 ------- null}
+ -t 0.3192 -s 0 -d 5 -p tcp -e 1040 -c 1 -i 86 -a 1 -x {0.0 5.0 52 ------- null}
- -t 0.32384 -s 0 -d 5 -p tcp -e 1040 -c 1 -i 55 -a 1 -x {0.0 5.0 36 ------- null}
h -t 0.32384 -s 0 -d 5 -p tcp -e 1040 -c 1 -i 55 -a 1 -x {0.0 5.0 -1 ------- null}
r -t 0.32552 -s 0 -d 5 -p tcp -e 1040 -c 1 -i 52 -a 1 -x {0.0 5.0 34 ------- null}
+ -t 0.32552 -s 5 -d 0 -p ack -e 40 -c 1 -i 87 -a 1 -x {5.0 0.0 34 ------- null}
- -t 0.32552 -s 5 -d 0 -p ack -e 40 -c 1 -i 87 -a 1 -x {5.0 0.0 34 ------- null}
h -t 0.32552 -s 5 -d 0 -p ack -e 40 -c 1 -i 87 -a 1 -x {5.0 0.0 -1 ------- null}
r -t 0.32752 -s 5 -d 0 -p ack -e 40 -c 1 -i 85 -a 1 -x {5.0 0.0 33 ------- null}
+ -t 0.32752 -s 0 -d 5 -p tcp -e 1040 -c 1 -i 88 -a 1 -x {0.0 5.0 53 ------- null}
- -t 0.33216 -s 0 -d 5 -p tcp -e 1040 -c 1 -i 57 -a 1 -x {0.0 5.0 37 ------- null}
h -t 0.33216 -s 0 -d 5 -p tcp -e 1040 -c 1 -i 57 -a 1 -x {0.0 5.0 -1 ------- null}
r -t 0.33384 -s 0 -d 5 -p tcp -e 1040 -c 1 -i 54 -a 1 -x {0.0 5.0 35 ------- null}
+ -t 0.33384 -s 5 -d 0 -p ack -e 40 -c 1 -i 89 -a 1 -x {5.0 0.0 35 ------- null}
- -t 0.33384 -s 5 -d 0 -p ack -e 40 -c 1 -i 89 -a 1 -x {5.0 0.0 35 ------- null}
h -t 0.33384 -s 5 -d 0 -p ack -e 40 -c 1 -i 89 -a 1 -x {5.0 0.0 -1 ------- null}
r -t 0.33584 -s 5 -d 0 -p ack -e 40 -c 1 -i 87 -a 1 -x {5.0 0.0 34 ------- null}
+ -t 0.33584 -s 0 -d 5 -p tcp -e 1040 -c 1 -i 90 -a 1 -x {0.0 5.0 54 ------- null}
- -t 0.34048 -s 0 -d 5 -p tcp -e 1040 -c 1 -i 58 -a 1 -x {0.0 5.0 38 ------- null}
h -t 0.34048 -s 0 -d 5 -p tcp -e 1040 -c 1 -i 58 -a 1 -x {0.0 5.0 -1 ------- null}
r -t 0.34216 -s 0 -d 5 -p tcp -e 1040 -c 1 -i 55 -a 1 -x {0.0 5.0 36 ------- null}
+ -t 0.34216 -s 5 -d 0 -p ack -e 40 -c 1 -i 91 -a 1 -x {5.0 0.0 36 ------- null}
- -t 0.34216 -s 5 -d 0 -p ack -e 40 -c 1 -i 91 -a 1 -x {5.0 0.0 36 ------- null}
h -t 0.34216 -s 5 -d 0 -p ack -e 40 -c 1 -i 91 -a 1 -x {5.0 0.0 -1 ------- null}
r -t 0.34416 -s 5 -d 0 -p ack -e 40 -c 1 -i 89 -a 1 -x {5.0 0.0 35 ------- null}
+ -t 0.34416 -s 0 -d 5 -p tcp -e 1040 -c 1 -i 92 -a 1 -x {0.0 5.0 55 ------- null}
- -t 0.3488 -s 0 -d 5 -p tcp -e 1040 -c 1 -i 60 -a 1 -x {0.0 5.0 39 ------- null}
h -t 0.3488 -s 0 -d 5 -p tcp -e 1040 -c 1 -i 60 -a 1 -x {0.0 5.0 -1 ------- null}
r -t 0.35048 -s 0 -d 5 -p tcp -e 1040 -c 1 -i 57 -a 1 -x {0.0 5.0 37 ------- null}
+ -t 0.35048 -s 5 -d 0 -p ack -e 40 -c 1 -i 93 -a 1 -x {5.0 0.0 37 ------- null}
- -t 0.35048 -s 5 -d 0 -p ack -e 40 -c 1 -i 93 -a 1 -x {5.0 0.0 37 ------- null}
h -t 0.35048 -s 5 -d 0 -p ack -e 40 -c 1 -i 93 -a 1 -x {5.0 0.0 -1 ------- null}
r -t 0.35248 -s 5 -d 0 -p ack -e 40 -c 1 -i 91 -a 1 -x {5.0 0.0 36 ------- null}
+ -t 0.35248 -s 0 -d 5 -p tcp -e 1040 -c 1 -i 94 -a 1 -x {0.0 5.0 56 ------- null}
- -t 0.35712 -s 0 -d 5 -p tcp -e 1040 -c 1 -i 62 -a 1 -x {0.0 5.0 40 ------- null}
h -t 0.35712 -s 0 -d 5 -p tcp -e 1040 -c 1 -i 62 -a 1 -x {0.0 5.0 -1 ------- null}
r -t 0.3588 -s 0 -d 5 -p tcp -e 1040 -c 1 -i 58 -a 1 -x {0.0 5.0 38 ------- null}
+ -t 0.3588 -s 5 -d 0 -p ack -e 40 -c 1 -i 95 -a 1 -x {5.0 0.0 38 ------- null}
- -t 0.3588 -s 5 -d 0 -p ack -e 40 -c 1 -i 95 -a 1 -x {5.0 0.0 38 ------- null}
h -t 0.3588 -s 5 -d 0 -p ack -e 40 -c 1 -i 95 -a 1 -x {5.0 0.0 -1 ------- null}
r -t 0.3608 -s 5 -d 0 -p ack -e 40 -c 1 -i 93 -a 1 -x {5.0 0.0 37 ------- null}
+ -t 0.3608 -s 0 -d 5 -p tcp -e 1040 -c 1 -i 96 -a 1 -x {0.0 5.0 57 ------- null}
- -t 0.36544 -s 0 -d 5 -p tcp -e 1040 -c 1 -i 64 -a 1 -x {0.0 5.0 41 ------- null}
h -t 0.36544 -s 0 -d 5 -p tcp -e 1040 -c 1 -i 64 -a 1 -x {0.0 5.0 -1 ------- null}
r -t 0.36712 -s 0 -d 5 -p tcp -e 1040 -c 1 -i 60 -a 1 -x {0.0 5.0 39 ------- null}
+ -t 0.36712 -s 5 -d 0 -p ack -e 40 -c 1 -i 97 -a 1 -x {5.0 0.0 39 ------- null}
- -t 0.36712 -s 5 -d 0 -p ack -e 40 -c 1 -i 97 -a 1 -x {5.0 0.0 39 ------- null}
h -t 0.36712 -s 5 -d 0 -p ack -e 40 -c 1 -i 97 -a 1 -x {5.0 0.0 -1 ------- null}
r -t 0.36912 -s 5 -d 0 -p ack -e 40 -c 1 -i 95 -a 1 -x {5.0 0.0 38 ------- null}
+ -t 0.36912 -s 0 -d 5 -p tcp -e 1040 -c 1 -i 98 -a 1 -x {0.0 5.0 58 ------- null}
- -t 0.37376 -s 0 -d 5 -p tcp -e 1040 -c 1 -i 66 -a 1 -x {0.0 5.0 42 ------- null}
h -t 0.37376 -s 0 -d 5 -p tcp -e 1040 -c 1 -i 66 -a 1 -x {0.0 5.0 -1 ------- null}
r -t 0.37544 -s 0 -d 5 -p tcp -e 1040 -c 1 -i 62 -a 1 -x {0.0 5.0 40 ------- null}
+ -t 0.37544 -s 5 -d 0 -p ack -e 40 -c 1 -i 99 -a 1 -x {5.0 0.0 40 ------- null}
- -t 0.37544 -s 5 -d 0 -p ack -e 40 -c 1 -i 99 -a 1 -x {5.0 0.0 40 ------- null}
h -t 0.37544 -s 5 -d 0 -p ack -e 40 -c 1 -i 99 -a 1 -x {5.0 0.0 -1 ------- null}
r -t 0.37744 -s 5 -d 0 -p ack -e 40 -c 1 -i 97 -a 1 -x {5.0 0.0 39 ------- null}
+ -t 0.37744 -s 0 -d 5 -p tcp -e 1040 -c 1 -i 100 -a 1 -x {0.0 5.0 59 ------- null}
- -t 0.38208 -s 0 -d 5 -p tcp -e 1040 -c 1 -i 68 -a 1 -x {0.0 5.0 43 ------- null}
h -t 0.38208 -s 0 -d 5 -p tcp -e 1040 -c 1 -i 68 -a 1 -x {0.0 5.0 -1 ------- null}
r -t 0.38376 -s 0 -d 5 -p tcp -e 1040 -c 1 -i 64 -a 1 -x {0.0 5.0 41 ------- null}
+ -t 0.38376 -s 5 -d 0 -p ack -e 40 -c 1 -i 101 -a 1 -x {5.0 0.0 41 ------- null}
- -t 0.38376 -s 5 -d 0 -p ack -e 40 -c 1 -i 101 -a 1 -x {5.0 0.0 41 ------- null}
h -t 0.38376 -s 5 -d 0 -p ack -e 40 -c 1 -i 101 -a 1 -x {5.0 0.0 -1 ------- null}
r -t 0.38576 -s 5 -d 0 -p ack -e 40 -c 1 -i 99 -a 1 -x {5.0 0.0 40 ------- null}
+ -t 0.38576 -s 0 -d 5 -p tcp -e 1040 -c 1 -i 102 -a 1 -x {0.0 5.0 60 ------- null}
- -t 0.3904 -s 0 -d 5 -p tcp -e 1040 -c 1 -i 70 -a 1 -x {0.0 5.0 44 ------- null}